Program Version,EnergyPlus, Version 25.2.0-cf7368216c, YMD=2026.06.01 05:04
1,5,Environment Title[],Latitude[deg],Longitude[deg],Time Zone[],Elevation[m]
2,8,Day of Simulation[],Month[],Day of Month[],DST Indicator[1=yes 0=no],Hour[],StartMinute[],EndMinute[],DayType
3,5,Cumulative Day of Simulation[],Month[],Day of Month[],DST Indicator[1=yes 0=no],DayType  ! When Daily Report Variables Requested
4,2,Cumulative Days of Simulation[],Month[]  ! When Monthly Report Variables Requested
5,1,Cumulative Days of Simulation[] ! When Run Period Report Variables Requested
6,1,Calendar Year of Simulation[] ! When Annual Report Variables Requested
7,9,Environment,Site Outdoor Air Drybulb Temperature [C] !Monthly [Value,Min,Day,Hour,Minute,Max,Day,Hour,Minute]
8,1,BANO,Zone Air Temperature [C] !Hourly
9,1,BANO,Zone Air Relative Humidity [%] !Hourly
144,1,COMERCIO,Zone Air Temperature [C] !Hourly
145,1,COMERCIO,Zone Air Relative Humidity [%] !Hourly
208,1,ESCALERA,Zone Air Temperature [C] !Hourly
209,1,ESCALERA,Zone Air Relative Humidity [%] !Hourly
272,1,RECAMARAPA,Zone Air Temperature [C] !Hourly
273,1,RECAMARAPA,Zone Air Relative Humidity [%] !Hourly
336,1,RECAMARAPB,Zone Air Temperature [C] !Hourly
337,1,RECAMARAPB,Zone Air Relative Humidity [%] !Hourly
400,1,SALA,Zone Air Temperature [C] !Hourly
401,1,SALA,Zone Air Relative Humidity [%] !Hourly
End of Data Dictionary
1,RUN PERIOD 1,  19.40, -99.18,  -6.00,2303.00
2,1, 1, 1, 0, 1, 0.00,60.00,Sunday
8,15.566677540696327
9,37.05997482579007
144,17.033980943573358
145,33.741118609927376
208,15.518861157560776
209,37.173198019428774
272,14.708066008437145
273,39.17155916117398
336,14.847147657301795
337,38.82142134602569
400,16.15576202590729
401,35.68487359062716
2,1, 1, 1, 0, 2, 0.00,60.00,Sunday
8,15.294577616127128
9,41.243060896062126
144,16.602594172621398
145,37.94364118943382
208,15.137965835196106
209,41.66108070409434
272,14.122814955036233
273,44.48139138461614
336,14.44965575629338
337,43.54876947884113
400,15.506318726809587
401,40.69313795174535
2,1, 1, 1, 0, 3, 0.00,60.00,Sunday
8,15.046941544812745
9,44.33807524683186
144,16.198303131518767
145,41.196581596034925
208,14.763260901175714
209,45.15505420321636
272,13.57046946570324
273,48.77548703946122
336,14.094517599754807
337,47.14429166442304
400,14.876111356700486
401,44.83303610679625
2,1, 1, 1, 0, 4, 0.00,60.00,Sunday
8,14.77623309547356
9,45.895942039373516
144,15.787947421486166
145,43.016632047854024
208,14.376241183417127
209,47.096322760950436
272,13.01863404420915
273,51.43715958853468
336,13.73620373815668
337,49.0874442439968
400,14.243875309143311
401,47.50549994606737
2,1, 1, 1, 0, 5, 0.00,60.00,Sunday
8,14.50146935551408
9,46.725323986124515
144,15.380256979370223
145,44.15885345982962
208,13.984323204599969
209,48.316499625212856
272,12.476330793691302
273,53.311610727889594
336,13.373860192122521
337,50.271002838451274
400,13.621904821207155
401,49.470758177681404
2,1, 1, 1, 0, 6, 0.00,60.00,Sunday
8,14.255636197816115
9,47.04504937465831
144,15.004910745645768
145,44.82526501559236
208,13.621602622957349
209,49.02291037653659
272,11.97822205642526
273,54.59589037705723
336,13.05023619473991
337,50.88357841839553
400,13.054729915299164
401,50.87250608899754
2,1, 1, 1, 0, 7, 0.00,60.00,Sunday
8,13.989674255277231
9,47.73575553922387
144,14.609842647827799
145,45.85855528835287
208,13.246589238918602
209,50.10278599024216
272,11.4949519637452
273,56.21905029819654
336,12.718086322747512
337,51.86483804048189
400,12.511148351398402
401,52.57717473972974
2,1, 1, 1, 0, 8, 0.00,60.00,Sunday
8,13.940992760101514
9,48.07016744412914
144,14.235643977200683
145,47.16346906169074
208,13.221332654550517
209,50.37692634871215
272,11.058193149720639
273,58.09298116533599
336,12.415257424782387
337,53.10949007506201
400,12.17512281117344
401,53.95453095908138
2,1, 1, 1, 0, 9, 0.00,60.00,Sunday
8,14.132648542406237
9,49.94448568587985
144,14.02290902170967
145,50.30894377454348
208,13.581081045249617
209,51.76028101135705
272,10.799126867151427
273,62.15876992798686
336,12.26595766712841
337,56.415570478956035
400,12.187364424196636
401,56.70325999182984
2,1, 1, 1, 0,10, 0.00,60.00,Sunday
8,14.3979572007239
9,54.13842499399726
144,14.017092279033486
145,55.49254742154321
208,14.00634654717902
209,55.51893544478829
272,10.756936220719597
273,68.68929589902989
336,12.241116094921566
337,62.2903020514664
400,12.398943347309602
401,61.64005341905479
2,1, 1, 1, 0,11, 0.00,60.00,Sunday
8,14.703844237479602
9,57.31466141702143
144,14.200059585942682
145,59.20593764318017
208,14.484619737655457
209,58.121617803512265
272,10.979950128827303
273,73.05045976722495
336,12.30500528989739
337,66.9618430026484
400,12.86008580507616
401,64.56454048879044
2,1, 1, 1, 0,12, 0.00,60.00,Sunday
8,14.94134632367187
9,60.02654643449524
144,14.563611640878472
145,61.496041558028956
208,14.937724414629429
209,60.03243302093275
272,11.525006466406731
273,74.92601375193703
336,12.552050389664265
337,70.05794102739331
400,13.651535133618053
401,65.20895322133241
2,1, 1, 1, 0,13, 0.00,60.00,Sunday
8,15.14735825526438
9,62.19156110061305
144,15.134577657649581
145,62.234391804727316
208,15.365336605555916
209,61.32249887008245
272,12.27537873207865
273,74.87899517443743
336,12.927926624957495
337,71.76770799228606
400,14.653816169390772
401,64.17100713450394
2,1, 1, 1, 0,14, 0.00,60.00,Sunday
8,15.373334582466304
9,61.94411359186777
144,15.81678682932611
145,60.21260332509335
208,15.828512785715027
209,60.16585013694026
272,13.139086130100365
273,71.55381270518357
336,13.36008697104414
337,70.5327070438974
400,15.728935244272622
401,60.549713252843596
2,1, 1, 1, 0,15, 0.00,60.00,Sunday
8,15.577792862980287
9,57.113747855782215
144,16.451592152899924
145,54.01477571130923
208,16.24604605347771
209,54.72228883468413
272,13.995924659070582
273,63.26287202321913
336,13.804916806981234
337,64.04929151677665
400,16.768370266524922
401,52.94100188314858
2,1, 1, 1, 0,16, 0.00,60.00,Sunday
8,15.7211754571999
9,52.14362167345764
144,17.031043809571006
145,47.963607556679676
208,16.53361790446846
209,49.49844555772747
272,14.804347681896125
273,55.34302974871869
336,14.229094642833699
337,57.43734505830904
400,17.685719530483965
401,46.01547293269394
2,1, 1, 1, 0,17, 0.00,60.00,Sunday
8,15.83839779504526
9,46.017661328634944
144,17.56688843006473
145,41.210553020002116
208,16.738532651120213
209,43.43233795078385
272,15.552607715323694
273,46.90278581191233
336,14.670507853382373
337,49.651641257205625
400,18.3919607403965
401,39.11144773516315
2,1, 1, 1, 0,18, 0.00,60.00,Sunday
8,16.051649696391582
9,41.37304642811012
144,18.11844275611471
145,36.26208367834371
208,16.976787727787023
209,38.9851060304319
272,16.251709947182636
273,40.863463734947565
336,15.195639068165226
337,43.744011642707214
400,18.97280285313665
401,34.354518909680486
2,1, 1, 1, 0,19, 0.00,60.00,Sunday
8,16.310038727850685
9,39.851585154433046
144,18.50835051479373
145,34.656682439872924
208,17.130036311117497
209,37.813216120165556
272,16.741824009199487
273,38.77629169430332
336,15.649166785532918
337,41.59232301236836
400,19.244725276343388
401,33.08599814268075
2,1, 1, 1, 0,20, 0.00,60.00,Sunday
8,16.348550830899622
9,40.334926471643655
144,18.538567433517116
145,35.110576308612245
208,16.973100284061513
209,38.7583189918025
272,16.803286558587505
273,39.1888364998178
336,15.780387698491085
337,41.83685917709305
400,19.01742528717681
401,34.07054865319352
2,1, 1, 1, 0,21, 0.00,60.00,Sunday
8,16.289468510678983
9,40.68037049221443
144,18.42232736809009
145,35.541960363434775
208,16.7489440738868
209,39.50353057340292
272,16.624245665224336
273,39.82504314051207
336,15.764056595927485
337,42.07580684884444
400,18.59406176792324
401,35.15848156859288
2,1, 1, 1, 0,22, 0.00,60.00,Sunday
8,16.21694405757464
9,40.18545216195938
144,18.26197193288145
145,35.29911447122586
208,16.570596882656673
209,39.285956047328455
272,16.347337414619084
273,39.85257899698476
336,15.706807738190363
337,41.522528395455176
400,18.137770475350123
401,35.57242637970213
2,1, 1, 1, 0,23, 0.00,60.00,Sunday
8,16.037029776734332
9,38.40507353388437
144,17.962006392495848
145,33.976414001693634
208,16.266766618034968
209,37.84129840402296
272,15.89531090102823
273,38.75361193507768
336,15.513383211877489
337,39.720401577655174
400,17.51579851128656
401,34.94491649978054
2,1, 1, 1, 0,24, 0.00,60.00,Sunday
8,15.787948167005458
9,37.11807224102857
144,17.519770908221087
145,33.22946889734468
208,15.882872495670204
209,36.88929509065033
272,15.310192406053133
273,38.273444800443535
336,15.201967023179884
337,38.54629431669465
400,16.81432402220133
401,34.75007228065759
2,2, 1, 2, 0, 1, 0.00,60.00,Monday
8,15.522860858120481
9,35.89608861227976
144,17.02003349394754
145,32.60891551333895
208,15.496806496043822
209,35.95353016156377
272,14.69434099079664
273,37.865595220453926
336,14.822970129389049
337,37.555909819697234
400,16.147483373006857
401,34.47526489245585
2,2, 1, 2, 0, 2, 0.00,60.00,Monday
8,15.2552638654797
9,35.258893160037246
144,16.593870106497874
145,32.350972480973745
208,15.119645021543258
209,35.566442143338755
272,14.110302185648164
273,37.97042078601057
336,14.430885837559083
337,37.1910584553553
400,15.501461161976977
401,34.69589347187975
2,2, 1, 2, 0, 3, 0.00,60.00,Monday
8,14.968758908495444
9,34.76493752775373
144,16.146394487035813
145,32.22303977193885
208,14.694745208471657
209,35.38442531418906
272,13.50905678376195
273,38.22152736466308
336,14.030712515757756
337,36.94596336005759
400,14.821918704140169
401,35.0890695849615
2,2, 1, 2, 0, 4, 0.00,60.00,Monday
8,14.703433522160234
9,34.38386973437634
144,15.73704206372823
145,32.16279381472106
208,14.296692160405222
209,35.301148185308826
272,12.941576725771677
273,38.56680246293309
336,13.671504317964938
337,36.769650043257336
400,14.17943740884742
401,35.567405991992665
2,2, 1, 2, 0, 5, 0.00,60.00,Monday
8,14.467513828621774
9,35.15522107304731
144,15.377596523899117
145,33.147697008376056
208,13.943403490604494
209,36.37075874198801
272,12.416153648369892
273,40.192766163506214
336,13.354893546731534
337,37.79414039790307
400,13.585832188181397
401,37.22577685108793
2,2, 1, 2, 0, 6, 0.00,60.00,Monday
8,14.224399616877166
9,36.278950710086065
144,15.005820762824294
145,34.49198088012101
208,13.575169431009238
209,37.84173193233429
272,11.89886580907198
273,42.2384531462753
336,13.031131655277001
337,39.210061756577225
400,13.00424333356847
401,39.278151893698784
2,2, 1, 2, 0, 7, 0.00,60.00,Monday
8,13.953495173294883
9,37.800998377659944
144,14.604919886407373
145,36.24062218952586
208,13.185139667398564
209,39.739548675327406
272,11.389541948523068
273,44.71902106986338
336,12.68991994647137
337,41.04761016416821
400,12.436572980193079
401,41.73585040796171
2,2, 1, 2, 0, 8, 0.00,60.00,Monday
8,13.906351390325526
9,38.48410835514611
144,14.225114474998598
145,37.70013816110665
208,13.15643310778261
209,40.40868816967204
272,10.931927904257874
273,46.789089922708285
336,12.378341002414212
337,42.524203666669116
400,12.08015800620079
401,43.36360851591596
2,2, 1, 2, 0, 9, 0.00,60.00,Monday
8,14.060033431569257
9,40.05812645607576
144,13.966481555816861
145,40.308196404517766
208,13.467818444124397
209,41.62410439276409
272,10.615638830427358
273,50.22379900110019
336,12.180522722408156
337,45.286921622852454
400,12.031206354206994
401,45.72908677085454
2,2, 1, 2, 0,10, 0.00,60.00,Monday
8,14.34015267596196
9,43.050244673471866
144,13.973421251020213
145,44.086568501801736
208,13.901384537707996
209,44.2832085673329
272,10.581337446459841
273,55.05189499043965
336,12.170822129858783
337,49.574042022648314
400,12.25147683519105
401,49.305296838508475
2,2, 1, 2, 0,11, 0.00,60.00,Monday
8,14.685365318072037
9,44.29841431612102
144,14.193121811050341
145,45.72786114350654
208,14.424830099864607
209,45.0436589599384
272,10.85622915513016
273,56.87101459505467
336,12.278347060960387
337,51.78984766276847
400,12.762597866977538
401,50.1686657355487
2,2, 1, 2, 0,12, 0.00,60.00,Monday
8,14.928456846702955
9,45.18438896080247
144,14.551144926370918
145,46.29248929713128
208,14.89186128839166
209,45.28533575424127
272,11.411514692500406
273,56.79770109601919
336,12.525763676003825
337,52.795084329925885
400,13.553074107634634
401,49.368699133372644
2,2, 1, 2, 0,13, 0.00,60.00,Monday
8,15.129927284141155
9,46.967826373620994
144,15.10859986843652
145,47.02639434231125
208,15.3225871609782
209,46.38614209332754
272,12.191715344457938
273,56.80476700793948
336,12.926828447943207
337,54.148336855206736
400,14.563083827645421
401,48.69408447993638
2,2, 1, 2, 0,14, 0.00,60.00,Monday
8,15.363062516185964
9,48.316663351552016
144,15.789400622438592
145,47.012752641122944
208,15.798918090214839
209,46.985427761605244
272,13.110641333638862
273,55.859540248557494
336,13.395179355074001
337,54.84344432154422
400,15.657760690753626
401,47.4022907222322
2,2, 1, 2, 0,15, 0.00,60.00,Monday
8,15.584146795547403
9,49.04121934435144
144,16.436237529242728
145,46.444129169867985
208,16.243658918412518
209,47.01809033832513
272,14.035402083388007
273,54.15653440355544
336,13.877533092475742
337,54.72164555387793
400,16.718262948853948
401,45.614708135265914
2,2, 1, 2, 0,16, 0.00,60.00,Monday
8,15.734762550244298
9,50.148613250497455
144,17.018766373668743
145,46.214739118089255
208,16.54163383521282
209,47.635546084699854
272,14.8603576209561
273,53.020284092615675
336,14.3155497605091
337,54.921570663530815
400,17.653789443439532
401,44.39526876294283
2,2, 1, 2, 0,17, 0.00,60.00,Monday
8,15.838820319658284
9,51.25751393170421
144,17.54266254424385
145,46.004056319306606
208,16.73432205899448
209,48.41883231520881
272,15.598989137898405
273,52.03050016589474
336,14.747598762086596
337,54.95763889984884
400,18.34230619415149
401,43.74783927412377
2,2, 1, 2, 0,18, 0.00,60.00,Monday
8,15.988852911959627
9,54.114831579146106
144,17.994906610462408
145,47.67005203514292
208,16.86443339194825
209,51.194331145548944
272,16.183520750771564
273,53.431523187239
336,15.182788726909441
337,56.9589909500909
400,18.783847305599384
401,45.3777176632831
2,2, 1, 2, 0,19, 0.00,60.00,Monday
8,16.16503681365668
9,58.03489319079128
144,18.26668051086054
145,50.84096173997943
208,16.891982774876784
209,55.430709217563894
272,16.559217718708542
273,56.592109447948665
336,15.532883655825907
337,60.40642618014926
400,18.903828656042215
401,48.86688687633612
2,2, 1, 2, 0,20, 0.00,60.00,Monday
8,16.236540728032768
9,60.06268888338284
144,18.332282014371973
145,52.63742353283081
208,16.83265403977931
209,57.84224535857934
272,16.664453180137798
273,58.44993531727069
336,15.693996853450685
337,62.16479103972173
400,18.776146119442384
401,51.206495348912426
2,2, 1, 2, 0,21, 0.00,60.00,Monday
8,16.167067846914378
9,61.027579892767164
144,18.188527622192712
145,53.71930169733887
208,16.65730328779169
209,59.161667195388155
272,16.51689409740933
273,59.68439052751187
336,15.665869478471905
337,63.00372003465829
400,18.39068798604597
401,53.05087063964191
2,2, 1, 2, 0,22, 0.00,60.00,Monday
8,15.989680413269909
9,61.21052811882681
144,17.89311172698786
145,54.26041765312518
208,16.36839285083524
209,59.75452952488656
272,16.165403675358192
273,60.528543255236855
336,15.495885866107136
337,63.17064245194493
400,17.826952129249104
401,54.49272216603932
2,2, 1, 2, 0,23, 0.00,60.00,Monday
8,15.797727612535276
9,60.69985429082741
144,17.537723019483632
145,54.34550293542361
208,16.090837115074603
209,59.575158310138754
272,15.73247538098794
273,60.954470776783445
336,15.273667084198289
337,62.7726228617145
400,17.212861568475464
401,55.47743905940854
2,2, 1, 2, 0,24, 0.00,60.00,Monday
8,15.600525827075119
9,60.446545096578284
144,17.112939022574864
145,54.89007527662718
208,15.806249083837338
209,59.655905169604786
272,15.240648613688892
273,61.860565376268426
336,14.99936670501099
337,62.82743421054251
400,16.624723293820267
401,56.62130511662119
2,3, 1, 3, 0, 1, 0.00,60.00,Tuesday
8,15.381681903298356
9,59.850516971061325
144,16.703228989705206
145,54.998207395604396
208,15.50727813749036
209,59.36962214515742
272,14.734073119100765
273,62.40096492339453
336,14.668189429171287
337,62.66716033186153
400,16.06746037136582
401,57.2759362509128
2,3, 1, 3, 0, 2, 0.00,60.00,Tuesday
8,15.17245969808662
9,59.27302243663856
144,16.354169808642645
145,54.945535199805256
208,15.225068448410378
209,59.07214796811494
272,14.277395886353476
273,62.80259568254878
336,14.353421959590415
337,62.4943739352702
400,15.554393121295144
401,57.83302994108826
2,3, 1, 3, 0, 3, 0.00,60.00,Tuesday
8,14.961033214278253
9,58.524826253993616
144,16.007827183327596
145,54.713375519160216
208,14.931640304787265
209,58.63514056101108
272,13.846839438370026
273,62.90700641813262
336,14.055380121721607
337,62.06061072916746
400,15.052334616796008
401,58.17800706295097
2,3, 1, 3, 0, 4, 0.00,60.00,Tuesday
8,14.745917465937408
9,57.505763908264356
144,15.675566276138305
145,54.15816324243758
208,14.63879378299461
209,57.90450177502879
272,13.447403225102754
273,62.56933164372381
336,13.775099563746254
337,61.247244664891944
400,14.576699966924844
401,58.13488370466839
2,3, 1, 3, 0, 5, 0.00,60.00,Tuesday
8,14.546788296638256
9,56.443190134354325
144,15.358212108972259
145,53.55765455635949
208,14.350666461274733
209,57.16428844940293
272,13.077646503035824
273,62.11340560902757
336,13.518620784921401
337,60.348363229236305
400,14.137083338802155
401,57.96017152310478
2,3, 1, 3, 0, 6, 0.00,60.00,Tuesday
8,14.3518284949386
9,56.142289301197174
144,15.062652740978288
145,53.61633726846918
208,14.07681602188359
209,57.152948296531726
272,12.738972776457762
273,62.37553688830533
336,13.285301343030348
337,60.18224602461988
400,13.738195766856768
401,58.424799719276336
2,3, 1, 3, 0, 7, 0.00,60.00,Tuesday
8,14.144754944166955
9,56.526473576858386
144,14.755698620401674
145,54.331058818739926
208,13.79579053917341
209,57.823067185919435
272,12.412143247193477
273,63.30607564996995
336,13.048076907268529
337,60.717901577978445
400,13.351471297383348
401,59.522043917795834
2,3, 1, 3, 0, 8, 0.00,60.00,Tuesday
8,14.074251424150264
9,56.83057342520669
144,14.460888270399636
145,55.422946149414685
208,13.735651532760336
209,58.09512176614739
272,12.111978892867333
273,64.61672153579978
336,12.826695777891503
337,61.65077075241911
400,13.095621681286973
401,60.57141275529302
2,3, 1, 3, 0, 9, 0.00,60.00,Tuesday
8,14.134776601241613
9,57.2596924361751
144,14.202638061430562
145,57.00785783084148
208,13.916722164057873
209,58.07580580960734
272,11.857521076590807
273,66.46197151714284
336,12.626878599788128
337,63.180033314366774
400,13.021255799005656
401,61.566057450328906
2,3, 1, 3, 0,10, 0.00,60.00,Tuesday
8,14.279189213870525
9,56.54902840449329
144,14.081607188017138
145,57.27567342807942
208,14.218400379571548
209,56.77406657515343
272,11.7486572713471
273,66.73260088339758
336,12.510171433469665
337,63.46620582758694
400,13.1385581554458
401,60.90680541854696
2,3, 1, 3, 0,11, 0.00,60.00,Tuesday
8,14.572925325852017
9,55.821741113358634
144,14.239972396576297
145,57.036663836333126
208,14.687132575013932
209,55.411172213967085
272,11.965062667042561
273,66.18159049646893
336,12.607752121105838
337,63.44270982554886
400,13.602923881623402
401,59.44571733773845
2,3, 1, 3, 0,12, 0.00,60.00,Tuesday
8,14.81260864435158
9,58.822616922957046
144,14.548766587790482
145,59.82656461045167
208,15.110484358297645
209,57.70494222486763
272,12.400264679076054
273,68.79101963446645
336,12.83121129040355
337,66.8825887949254
400,14.29149061884825
401,60.82349406909378
2,3, 1, 3, 0,13, 0.00,60.00,Tuesday
8,14.967717635063165
9,61.110714355284706
144,14.953715323660303
145,61.1609343080685
208,15.41269489425023
209,59.39028062470379
272,12.924504045271064
273,69.74212842728896
336,13.077063523272557
337,69.05626310035014
400,15.060642029153156
401,60.7395928271898
2,3, 1, 3, 0,14, 0.00,60.00,Tuesday
8,15.162247207874756
9,62.31666123725022
144,15.515593315482944
145,60.91719699038777
208,15.769751012406326
209,59.93916819061622
272,13.540681893624091
273,69.18105531398801
336,13.414512500718416
337,69.75469765085471
400,15.90936943319476
401,59.40171253702585
2,3, 1, 3, 0,15, 0.00,60.00,Tuesday
8,15.337731603956655
9,63.05711085965257
144,16.101559453758785
145,60.048876494291754
208,16.083930283668114
209,60.120122376785474
272,14.251352676836225
273,67.61188018889065
336,13.794135193500045
337,69.6464099844295
400,16.72894551424436
401,57.70061255787669
2,3, 1, 3, 0,16, 0.00,60.00,Tuesday
8,15.466047370445045
9,63.38507390154144
144,16.63682063219349
145,58.82309501797517
208,16.343598633857116
209,59.93167125091856
272,14.97238505594798
273,65.4174544448587
336,14.172651653923294
337,68.88165848914264
400,17.501402146961727
401,55.692108616452686
2,3, 1, 3, 0,17, 0.00,60.00,Tuesday
8,15.59344206166994
9,62.38531200186346
144,17.150474084792183
145,56.497658808241006
208,16.545643740976924
209,58.707067352019486
272,15.647802892176564
273,62.16546412512233
336,14.571453600313555
337,66.62005403619203
400,18.163250715224457
401,53.002783865372265
2,3, 1, 3, 0,18, 0.00,60.00,Tuesday
8,15.743176036363543
9,60.37299753083092
144,17.62544077647517
145,53.56299476896729
208,16.698210131348095
209,56.80179179000833
272,16.203138933304285
273,58.62120877109411
336,14.994172589303895
337,63.349568083310125
400,18.611633527497453
401,50.33882231460725
2,3, 1, 3, 0,19, 0.00,60.00,Tuesday
8,15.871067034497457
9,57.5475049334843
144,17.890754471181
145,50.60982958645989
208,16.680998753925042
209,54.641262667165215
272,16.491663751783403
273,55.3059062947219
336,15.303447061226132
337,59.68499004677752
400,18.666589920447688
401,48.19470903921745
2,3, 1, 3, 0,20, 0.00,60.00,Tuesday
8,15.910566462371039
9,54.5236808344548
144,17.921058829918625
145,47.97069049000287
208,16.512950260153293
209,52.45654555675973
272,16.508352055706823
273,52.47269084813403
336,15.42256619558485
337,56.26180582551698
400,18.478285401974382
401,46.31006729466097
2,3, 1, 3, 0,21, 0.00,60.00,Tuesday
8,15.847326343106923
9,52.57762540626771
144,17.795857369873115
145,46.43501740647562
208,16.28822177968866
209,51.10856187682236
272,16.317439457279992
273,51.01316637538441
336,15.385645457270556
337,54.16301605521238
400,18.1074477014099
401,45.525728634734946
2,3, 1, 3, 0,22, 0.00,60.00,Tuesday
8,15.713319078374413
9,52.27161426419533
144,17.558991470559928
145,46.465767239597405
208,16.04298061778732
209,51.17488611476887
272,15.99158352127506
273,51.34352194621437
336,15.245009013157462
337,53.870859714377524
400,17.581106096073334
401,46.39720359986686
2,3, 1, 3, 0,23, 0.00,60.00,Tuesday
8,15.544323722292091
9,52.287181678940875
144,17.221139750062576
145,46.97644689516099
208,15.786072285283325
209,51.47952322148857
272,15.531482286290121
273,52.3273090345643
336,15.023345221409185
337,54.07106221133543
400,16.97274503844287
401,47.71995127278948
2,3, 1, 3, 0,24, 0.00,60.00,Tuesday
8,15.317578851307788
9,52.10069136328346
144,16.774042205591794
145,47.46027014635859
208,15.458359726493661
209,51.628744441322944
272,14.967925721501947
273,53.28442646909013
336,14.691966702898355
337,54.24650776880784
400,16.3285594632003
401,48.824453471335694
2,4, 1, 4, 0, 1, 0.00,60.00,Wednesday
8,15.068182610909084
9,51.57702657426936
144,16.350598353256245
145,47.49809599257748
208,15.11534663507562
209,51.41835472445502
272,14.397223421271981
273,53.86055279551033
336,14.317487465256335
337,54.14316900467602
400,15.693855165447124
401,49.53547116009835
2,4, 1, 4, 0, 2, 0.00,60.00,Wednesday
8,14.83446504672432
9,51.23146465264856
144,15.960080022358774
145,47.64900435314203
208,14.767878527629072
209,51.45058803742026
272,13.854794096386195
273,54.589381788899175
336,13.981331421454378
337,54.14464911037009
400,15.074506987514544
401,50.43785582268823
2,4, 1, 4, 0, 3, 0.00,60.00,Wednesday
8,14.60582151837331
9,50.77069382949185
144,15.595213442828523
145,47.62893968178377
208,14.431491105385243
209,51.34551197325629
272,13.335557345388509
273,55.14150781352047
336,13.669455469995961
337,53.955259657583895
400,14.48270176037691
401,51.17131929366141
2,4, 1, 4, 0, 4, 0.00,60.00,Wednesday
8,14.36139906460638
9,50.56556426408074
144,15.22582657302618
145,47.81514070501647
208,14.066006990175348
209,51.54359142914541
272,12.81581497008608
273,55.92920220743894
336,13.344738281136168
337,54.02633684762438
400,13.892446483427351
401,52.126168003124484
2,4, 1, 4, 0, 5, 0.00,60.00,Wednesday
8,14.117516769614776
9,51.061790783798955
144,14.857010634230981
145,48.672357400162845
208,13.687879621982809
209,52.508062644427355
272,12.308124655576988
273,57.47537326893215
336,13.022596738099182
337,54.84152852861447
400,13.319361085022217
401,53.784178300774975
2,4, 1, 4, 0, 6, 0.00,60.00,Wednesday
8,13.871566096584784
9,51.4474001766798
144,14.499748430557569
145,49.390815116145724
208,13.319892736998918
209,53.33017054674243
272,11.82947729835422
273,58.817251086161214
336,12.717882471544856
337,55.475511291282004
400,12.780931526764363
401,55.24371433766954
2,4, 1, 4, 0, 7, 0.00,60.00,Wednesday
8,13.615775848060816
9,51.27461992842328
144,14.129576193350431
145,49.58714849352893
208,12.947918240456573
209,53.56179618381146
272,11.361863261251727
273,59.468113861511334
336,12.406321751953833
337,55.50249839927847
400,12.256628754048608
401,56.049886413632976
2,4, 1, 4, 0, 8, 0.00,60.00,Wednesday
8,13.59053563615776
9,50.76437558825626
144,13.796438399096994
145,50.08646471777632
208,12.942592040869862
209,52.961616691143696
272,10.948638963063262
273,60.416250603148285
336,12.139879032008453
337,55.83060539728432
400,11.952651455109573
401,56.5220542423587
2,4, 1, 4, 0, 9, 0.00,60.00,Wednesday
8,13.741016749601322
9,51.72285222490191
144,13.55169068575153
145,52.366296624910945
208,13.248930849412943
209,53.406426134921354
272,10.637416308268769
273,63.449656008766816
336,11.945453876980025
337,58.1792307401797
400,11.906274655982886
401,58.32631954125484
2,4, 1, 4, 0,10, 0.00,60.00,Wednesday
8,14.010646463295968
9,54.924195312306786
144,13.560321637361213
145,56.555125036610065
208,13.671424913455967
209,56.140274435565196
272,10.58930008913723
273,68.74392043110704
336,11.92732148883782
337,62.925933421784386
400,12.110112581143865
401,62.16446156400664
2,4, 1, 4, 0,11, 0.00,60.00,Wednesday
8,14.363561185919004
9,57.85265368650812
144,13.790584473345186
145,60.03446995897326
208,14.195039058952245
209,58.48298649590341
272,10.842982798813543
273,72.81390243446123
336,12.03662779593956
337,67.30559829204284
400,12.615370162152416
401,64.79906131833009
2,4, 1, 4, 0,12, 0.00,60.00,Wednesday
8,14.60117432246894
9,54.79081598159544
144,14.151184788931902
145,56.41398868373724
208,14.646087032782518
209,54.6332828637199
272,11.365764474102349
273,67.70500554999599
336,12.27364890194409
337,63.76438515506455
400,13.38745905609551
401,59.29074049181023
2,4, 1, 4, 0,13, 0.00,60.00,Wednesday
8,14.809669748841058
9,51.794313320231375
144,14.7248043718628
145,52.087690950769854
208,15.068574261075858
209,50.93782506654569
272,12.107423565313113
273,61.795906181483076
336,12.65334110695546
337,59.60811286711891
400,14.38303864787096
401,53.25875567736947
2,4, 1, 4, 0,14, 0.00,60.00,Wednesday
8,15.0483450250642
9,48.96164723346717
144,15.422057068266598
145,47.808728381933086
208,15.53729430179763
209,47.44811715592278
272,12.979242659412959
273,56.039763865843106
336,13.107480614079213
337,55.55602206481447
400,15.464865679062683
401,47.68895807252053
2,4, 1, 4, 0,15, 0.00,60.00,Wednesday
8,15.26938499059487
9,45.12668477155887
144,16.082014798134498
145,42.84096752796493
208,15.967585585946443
209,43.14768025742065
272,13.845700749718846
273,49.51989154057613
336,13.573729074377617
337,50.39351277317098
400,16.5303849903573
401,41.64126955669641
2,4, 1, 4, 0,16, 0.00,60.00,Wednesday
8,15.431796397087423
9,43.23461110638516
144,16.69527794670437
145,39.879656229016184
208,16.275912478648014
209,40.955420763264904
272,14.67425481903228
273,45.42274226882421
336,14.01341688598206
337,47.40502658275502
400,17.485240187097478
401,37.93215664732819
2,4, 1, 4, 0,17, 0.00,60.00,Wednesday
8,15.570061109281179
9,42.85396158573068
144,17.27357925792356
145,38.446601439464025
208,16.506148957682758
209,40.36258897962747
272,15.445957673615274
273,43.21316075963272
336,14.470830486505152
337,46.012963307488626
400,18.243212408098945
401,36.16623854039556
2,4, 1, 4, 0,18, 0.00,60.00,Wednesday
8,15.707493832431872
9,42.38774180262657
144,17.765905206453116
145,37.190160710455025
208,16.630199550784127
209,39.96130930790223
272,16.043698485380347
273,41.49434085435864
336,14.912824614360524
337,44.61733707586112
400,18.71542733331027
401,35.03597189565334
2,4, 1, 4, 0,19, 0.00,60.00,Wednesday
8,15.89133088613363
9,41.78949571515246
144,18.077153047393242
145,36.37946506731097
208,16.637120336803317
209,39.84610008767496
272,16.429870657712147
273,40.38253796193841
336,15.287016604738975
337,43.446252422787275
400,18.837801834390405
401,34.68389563717076
2,4, 1, 4, 0,20, 0.00,60.00,Wednesday
8,16.032925208483746
9,40.4463230180828
144,18.230302191191623
145,35.185348802938
208,16.627572725278498
209,38.939037706399304
272,16.597709325925397
273,39.016989593995866
336,15.517474482986934
337,41.80783413179519
400,18.788228839732813
401,33.97402545446817
2,4, 1, 4, 0,21, 0.00,60.00,Wednesday
8,16.0324525804199
9,39.956377368754055
144,18.176867871223866
145,34.874769727781725
208,16.50974142748059
209,38.75639985448458
272,16.466460842692413
273,38.86568927240344
336,15.544400429260333
337,41.22758988794529
400,18.453928799501817
401,34.27263814388049
2,4, 1, 4, 0,22, 0.00,60.00,Wednesday
8,15.911525854554363
9,40.272421163119596
144,17.96175048665485
145,35.35823582001172
208,16.25885487532228
209,39.388628209543725
272,16.108041562217096
273,39.771850164949704
336,15.419509199480977
337,41.56415850998774
400,17.924205155623486
401,35.44349318590401
2,4, 1, 4, 0,23, 0.00,60.00,Wednesday
8,15.708579336784313
9,41.6461807417019
144,17.64029582079537
145,36.836707178537516
208,15.92185107494354
209,41.08238680804862
272,15.63334831324518
273,41.85002691516555