Program Version,EnergyPlus, Version 25.2.0-cf7368216c, YMD=2026.06.01 05:17
1,5,Environment Title[],Latitude[deg],Longitude[deg],Time Zone[],Elevation[m]
2,8,Day of Simulation[],Month[],Day of Month[],DST Indicator[1=yes 0=no],Hour[],StartMinute[],EndMinute[],DayType
3,5,Cumulative Day of Simulation[],Month[],Day of Month[],DST Indicator[1=yes 0=no],DayType  ! When Daily Report Variables Requested
4,2,Cumulative Days of Simulation[],Month[]  ! When Monthly Report Variables Requested
5,1,Cumulative Days of Simulation[] ! When Run Period Report Variables Requested
6,1,Calendar Year of Simulation[] ! When Annual Report Variables Requested
7,9,Environment,Site Outdoor Air Drybulb Temperature [C] !Monthly [Value,Min,Day,Hour,Minute,Max,Day,Hour,Minute]
8,1,BANO,Zone Air Temperature [C] !Hourly
9,1,BANO,Zone Air Relative Humidity [%] !Hourly
144,1,CIRCULACION,Zone Air Temperature [C] !Hourly
145,1,CIRCULACION,Zone Air Relative Humidity [%] !Hourly
208,1,COMERCIO,Zone Air Temperature [C] !Hourly
209,1,COMERCIO,Zone Air Relative Humidity [%] !Hourly
272,1,ESCALERA,Zone Air Temperature [C] !Hourly
273,1,ESCALERA,Zone Air Relative Humidity [%] !Hourly
336,1,RECAMARAPA,Zone Air Temperature [C] !Hourly
337,1,RECAMARAPA,Zone Air Relative Humidity [%] !Hourly
400,1,RECAMARAPB,Zone Air Temperature [C] !Hourly
401,1,RECAMARAPB,Zone Air Relative Humidity [%] !Hourly
464,1,SALA,Zone Air Temperature [C] !Hourly
465,1,SALA,Zone Air Relative Humidity [%] !Hourly
End of Data Dictionary
1,RUN PERIOD 1,  19.40, -99.18,  -6.00,2303.00
2,1, 1, 1, 0, 1, 0.00,60.00,Sunday
8,15.785485133037099
9,36.54261566989184
144,18.156565928667714
145,31.426969411823297
208,20.169345504038237
209,27.709162930137428
272,16.30901878676791
273,35.33667531770982
336,14.774023911189637
337,39.00468009986371
400,14.893603418903089
401,38.704980828112014
464,17.232038605954447
465,33.3188703684189
2,1, 1, 1, 0, 2, 0.00,60.00,Sunday
8,15.522313337453326
9,40.64585610260975
144,17.728520965605416
145,35.338630975373015
208,19.644255258899438
209,31.35521650129415
272,15.924784815702106
273,39.61547388214857
336,14.191128586328063
337,44.28525142797687
400,14.497823093172352
401,43.41359851946809
464,16.59249528814987
465,37.97127370977959
2,1, 1, 1, 0, 3, 0.00,60.00,Sunday
8,15.272756943189739
9,43.701079935831444
144,17.330876575832608
145,38.34661673782112
208,19.148638315848142
209,34.22461284078493
272,15.554688759433922
273,42.9213888045137
336,13.640531399984978
337,48.554226583488735
400,14.143928055966411
401,46.99396763205945
464,15.975387411491157
465,41.78858448128721
2,1, 1, 1, 0, 4, 0.00,60.00,Sunday
8,15.001977022711392
9,45.234783173615455
144,16.900659539256004
145,40.08010257609407
208,18.648194508493095
209,35.911686916418
272,15.162071932464073
273,44.77435414219493
336,13.090608805406355
337,51.19623301934138
400,13.786398450261672
401,48.92789448212435
464,15.359039193622047
465,44.21657557161185
2,1, 1, 1, 0, 5, 0.00,60.00,Sunday
8,14.729415123145822
9,46.043452384407914
144,16.457251759657847
145,41.225151632639296
208,18.15582089164332
209,37.03240423419209
272,14.746754445080043
273,45.99393019086502
336,12.549243649829272
337,53.057318433958955
400,13.424120984667276
401,50.10673960430287
464,14.752972721189098
465,45.97878662224836
2,1, 1, 1, 0, 6, 0.00,60.00,Sunday
8,14.48027013696448
9,46.36643264461043
144,16.05510959780749
145,41.90733502282933
208,17.70949942263522
209,37.733172181820414
272,14.358674383478464
273,46.73404935344581
336,12.051739788830346
337,54.332017203517374
400,13.100277354475232
401,50.71746159399436
464,14.201896856182367
465,47.21335696175822
2,1, 1, 1, 0, 7, 0.00,60.00,Sunday
8,14.212100391701604
9,47.05222851881228
144,15.648847463619555
145,42.89409937148548
208,17.266261477827772
209,38.69773700358213
272,13.965415635166536
273,47.81250943068168
336,11.569794310647886
337,55.94129475115681
400,12.767325324356817
401,51.69773112176489
464,13.667554204674794
465,48.74938273784755
2,1, 1, 1, 0, 8, 0.00,60.00,Sunday
8,14.153833721712841
9,47.41107547376538
144,15.338384567850683
145,43.924804109033346
208,17.169922971722098
209,39.083154985847905
272,13.921061891223951
273,48.13328526521074
336,11.13274714952025
337,57.80611932587467
400,12.463801480566659
401,52.940401802887074
464,13.371976707039565
465,49.88476568084459
2,1, 1, 1, 0, 9, 0.00,60.00,Sunday
8,14.33763574602448
9,49.28704503112658
144,15.314280777676862
145,46.28755746602798
208,17.61654987571806
209,39.98081857142567
272,14.261067004034624
273,49.52889422436431
336,10.872769853222836
337,61.85548612050912
400,12.314803442081788
401,56.23491823514024
464,13.441202770441523
465,52.238771874259946
2,1, 1, 1, 0,10, 0.00,60.00,Sunday
8,14.598549045487836
9,53.444243219586134
144,15.41331996463183
145,50.73037815295351
208,18.346920969424946
209,42.13685539209382
272,14.673908178327402
273,53.182039992533674
336,10.829874775760091
337,68.3582225972332
400,12.290226333306308
401,62.09026425040193
464,13.710916513705321
465,56.59315042352474
2,1, 1, 1, 0,11, 0.00,60.00,Sunday
8,14.896189886746233
9,56.612314771624376
144,15.598453792581624
145,54.130782225645696
208,19.28629990030267
209,42.92140048150691
272,15.1455687444288
273,55.71000790306514
336,11.049459738321175
337,72.71579933462193
400,12.354197100609523
401,66.74680319205491
464,14.240592377410218
465,59.04047831435749
2,1, 1, 1, 0,12, 0.00,60.00,Sunday
8,15.123215873661637
9,59.332192025858596
144,15.909562362214054
145,56.428523862513636
208,20.287287660532517
209,42.90464726304375
272,15.594965201368682
273,57.56382794821538
336,11.591731984935178
337,74.59789971692142
400,12.599815839958003
401,69.83991581476549
464,15.0600341613113
465,59.556669503336025
2,1, 1, 1, 0,13, 0.00,60.00,Sunday
8,15.329344617493462
9,61.472188594406674
144,16.316227251846957
145,57.72541960075075
208,21.248345778425758
209,42.46123027753037
272,16.008483872280397
273,58.860831524075046
336,12.339146900065536
337,74.56731727409546
400,12.974112264161684
401,71.5523042772831
464,16.06566733450136
465,58.63623258006995
2,1, 1, 1, 0,14, 0.00,60.00,Sunday
8,15.55900710519244
9,61.213144506895276
144,16.82725539117076
145,56.47198241238624
208,22.095825663866595
209,40.72994443960817
272,16.479517400464328
273,57.726301094433474
336,13.197214392747105
337,71.28350148102685
400,13.405480986271016
401,70.32493384185547
464,17.126730090012895
465,55.40927065916318
2,1, 1, 1, 0,15, 0.00,60.00,Sunday
8,15.763754088102976
9,56.43690794397629
144,17.454053169259236
145,50.69009059121732
208,22.787668382904737
209,36.41905963258021
272,16.92412265701464
273,52.41160411791997
336,14.058191824833814
337,63.00790494618633
400,13.849138216414913
401,63.86541884281623
464,18.140039818266303
465,48.54156679695557
2,1, 1, 1, 0,16, 0.00,60.00,Sunday
8,15.907373198318039
9,51.523525436232184
144,18.134447938871677
145,44.72975035838126
208,23.260526526492537
209,32.558986791736544
272,17.243954975729885
273,47.30873646245044
336,14.869802720678033
337,55.10916196687548
400,14.275031173580274
401,57.2661464932412
464,19.00156800548536
465,42.35253510154269
2,1, 1, 1, 0,17, 0.00,60.00,Sunday
8,16.02465390232123
9,45.46863044251671
144,18.799255402511374
145,38.123415680231496
208,23.449100521101183
209,28.564525450175093
272,17.471502469437123
273,41.44715489719726
336,15.62028537541191
337,46.69828676719687
400,14.718309987618833
401,49.49753124046302
464,19.647229217899483
465,36.13768707130358
2,1, 1, 1, 0,18, 0.00,60.00,Sunday
8,16.235030352149852
9,40.886978976926876
144,19.474758139102573
145,33.29242004394919
208,23.39351519320114
209,26.10390575843717
272,17.727228136953375
273,37.162522479287674
336,16.32228854265207
337,40.678423578779544
400,15.243695882989622
401,43.6078363353802
464,20.14753612511397
465,31.909895788148393
2,1, 1, 1, 0,19, 0.00,60.00,Sunday
8,16.49239727612809
9,39.388212376236226
144,19.931617290091882
145,31.69924608759821
208,23.130713138248215
209,26.010634873842168
272,17.89873623677438
273,36.010331032285904
336,16.813317613610455
337,38.599513015228126
400,15.697387210221967
401,41.46319604899066
464,20.32528528437738
465,30.92419431825033
2,1, 1, 1, 0,20, 0.00,60.00,Sunday
8,16.532238664390405
9,39.86427426613445
144,19.893844651318812
145,32.260352444449985
208,22.668709357956903
209,27.185013813298415
272,17.735640374378086
273,36.92865904381298
336,16.874128367364655
337,39.012469378956474
400,15.828720237859704
401,41.70722948265049
464,20.034889190867794
465,31.973868960331572
2,1, 1, 1, 0,21, 0.00,60.00,Sunday
8,16.47368475626459
9,40.20486572010682
144,19.641154606209984
145,32.934693575663886
208,22.17545326283192
209,28.164953286221117
272,17.49817095545706
273,37.66955984088617
336,16.691038962569277
337,39.6560063472467
400,15.81268513787623
401,41.94482257721547
464,19.583234338325436
465,33.049756404838384
2,1, 1, 1, 0,22, 0.00,60.00,Sunday
8,16.397468140773917
9,39.72472819776251
144,19.422402784649734
145,32.82498241743486
208,21.77507154316412
209,28.378884846916524
272,17.32988245078285
273,37.43570496721183
336,16.41125424561686
337,39.69030033043622
400,15.755707637734579
401,41.39247505653445
464,19.132525025794582
465,33.420174538417115
2,1, 1, 1, 0,23, 0.00,60.00,Sunday
8,16.225791470781036
9,37.94362574863056
144,19.060622042947816
145,31.707485632573622
208,21.303863517056875
209,27.580979459082574
272,17.052364014891
273,35.991570796773225
336,15.953277143752269
337,38.60964878620479
400,15.562019965431167
401,39.596241951972466
464,18.54990638639457
465,32.73634697419547
2,1, 1, 1, 0,24, 0.00,60.00,Sunday
8,15.994207740378641
9,36.62975098661213
144,18.597108936879767
145,31.043251921550333
208,20.723822369286477
209,27.18257826126434
272,16.680866678953866
273,35.05157273233372
336,15.37052586842652
337,38.12476861461252
400,15.249314883811318
401,38.42860222202387
464,17.881817056160184
465,32.47209254210794
2,2, 1, 2, 0, 1, 0.00,60.00,Monday
8,15.74573119329775
9,35.38486919127843
144,18.159055942081263
145,30.336500475187943
208,20.152811877728755
209,26.770696081336762
272,16.291894356111907
273,34.1624873021029
336,14.76220150899078
337,37.69936649608494
400,14.871440460310529
401,37.43814274145203
464,17.224739301742794
465,32.182901413186414
2,2, 1, 2, 0, 2, 0.00,60.00,Monday
8,15.488167451570488
9,34.7333610326999
144,17.738544259327167
145,30.07932784075781
208,19.635859791232516
209,26.695138145123025
272,15.911635573270871
273,33.79698285031268
336,14.180400697177708
337,37.79751829989058
400,14.481117938883854
401,37.06989573774492
464,16.588774503368608
465,32.35776233623968
2,2, 1, 2, 0, 3, 0.00,60.00,Monday
8,15.200391720967396
9,34.24849121972796
144,17.275705412411224
145,29.982591008860876
208,19.083878338936618
209,26.74830216144726
272,15.48674129083404
273,33.61888491129588
336,13.58061933449737
337,38.043065821469575
400,14.082326609566573
401,36.82195197717356
464,15.916208431213398
465,32.698446805948436
2,2, 1, 2, 0, 4, 0.00,60.00,Monday
8,14.93465713772955
9,33.873119059431076
144,16.849198251251195
145,29.953361353501247
208,18.58349030388762
209,26.838424685358202
272,15.087245725603983
273,33.538365912597946
336,13.014585082306658
337,38.38234982178664
400,13.724299063599593
401,36.64311685145412
464,15.283584678255353
465,33.11240148459819
2,2, 1, 2, 0, 5, 0.00,60.00,Monday
8,14.700072042238832
9,34.6299800079317
144,16.46582604242713
145,30.915712985211314
208,18.15058834101765
209,27.784374789477322
272,14.7130398544059
273,34.59972658590224
336,12.490996783600714
337,39.99525236158296
400,13.407637563746391
401,37.66410184476948
464,14.708116968938391
465,34.60859704475637
2,2, 1, 2, 0, 6, 0.00,60.00,Monday
8,14.45402125604234
9,35.74352269810219
144,16.0648351980256
145,32.226498367211384
208,17.706401118468676
209,29.037057729586376
272,14.31937304315271
273,36.055981189782976
336,11.974248991956744
337,42.02884381794221
400,13.083478005305539
401,39.07604148032778
464,14.141629194235337
465,36.472826131800666
2,2, 1, 2, 0, 7, 0.00,60.00,Monday
8,14.181431067762494
9,37.24656416269956
144,15.642330815576729
145,33.90248791719296
208,17.250959160022443
209,30.60386537542139
272,13.911490468617776
273,37.90445210745485
336,11.46595863600364
337,44.49338067499294
400,12.741715020686158
401,40.9085478122584
464,13.583461095436727
465,38.72125826370157
2,2, 1, 2, 0, 8, 0.00,60.00,Monday
8,14.124722898521677
9,37.94306890566012
144,15.317796575539676
145,35.134884416173314
208,17.15233409693269
209,31.25652812194723
272,13.86353411281275
273,38.59069368914109
336,11.00877794873581
337,46.55088240079141
400,12.429469502832148
401,42.381676513866424
464,13.272149248899515
465,40.10480422110993
2,2, 1, 2, 0, 9, 0.00,60.00,Monday
8,14.271818571520882
9,39.513408464888826
144,15.224188850722081
145,37.16705445396392
208,17.538131696686136
209,32.07788980362227
272,14.15651217668843
273,39.806555396872504
336,10.691861932319929
337,49.969960440781705
400,12.231860709661683
401,45.13448491185334
464,13.286801829997806
465,42.12117664424757
2,2, 1, 2, 0,10, 0.00,60.00,Monday
8,14.547012943575487
9,42.4809913852485
144,15.351102917456048
145,40.34944955704924
208,18.28687375008371
209,33.50981351235976
272,14.576346640431519
273,42.39787916712095
336,10.65723832413577
337,54.77545007319625
400,12.222587240983474
401,49.4061909799392
464,13.562624676745381
465,45.267266140122906
2,2, 1, 2, 0,11, 0.00,60.00,Monday
8,14.88088906529042
9,43.74604244883437
144,15.601631883049665
145,41.776676680270064
208,19.270707097644983
209,33.16098686829589
272,15.08927965599443
273,43.16243138024918
336,10.927700519111717
337,56.60261768952473
400,12.329970834720228
401,51.61511489737794
464,14.134657738012322
465,45.894805728323654
2,2, 1, 2, 0,12, 0.00,60.00,Monday
8,15.112516546731316
9,44.65455925045098
144,15.934176546561792
145,42.37059453413624
208,20.252015278955128
209,32.32605936436152
272,15.551399511196303
273,43.41339552677991
336,11.479955684515694
337,56.541983775139705
400,12.575887214649816
401,52.62239119495862
464,14.957942830074183
465,45.09082512578815
2,2, 1, 2, 0,13, 0.00,60.00,Monday
8,15.316942933644206
9,46.40913688771085
144,16.372133338700184
145,43.38941184449815
208,21.198331062744955
209,32.12206920065724
272,15.967009732210727
273,44.518561302705784
336,12.25679980612155
337,56.56312264481059
400,12.975240607598588
401,53.977866986470296
464,15.968872697268623
465,44.505724147292746
2,2, 1, 2, 0,14, 0.00,60.00,Monday
8,15.552680040165463
9,47.73497843746235
144,16.91131891685095
145,43.78508201076492
208,22.02868662731494
209,31.887706021339582
272,16.451166547030684
273,45.07787262866515
336,13.169834295418687
337,55.64496011726937
400,13.442315036238279
401,54.67593349537725
464,17.039716913099486
465,43.423396482893644
2,2, 1, 2, 0,15, 0.00,60.00,Monday
8,15.77368882249379
9,48.45172153026814
144,17.56782032777556
145,43.24248634375039
208,22.6728097678341
209,31.563403943537832
272,16.92221104776652
273,45.03939734140868
336,14.10011562660373
337,53.93061163600479
400,13.924109150284428
401,54.55701782231674
464,18.05348602283632
465,41.936751742545965
2,2, 1, 2, 0,16, 0.00,60.00,Monday
8,15.924464085757224
9,49.54586274599038
144,18.235945466948873
145,42.811156522977676
208,23.093650427334083
209,31.769615479828715
272,17.25517775621311
273,45.53420338449181
336,14.927939049119644
337,52.7906963431225
400,14.364009462234906
401,54.750192534097984
464,18.91821979892379
465,41.02074685917567
2,2, 1, 2, 0,17, 0.00,60.00,Monday
8,16.028776309480406
9,50.640993580053895
144,18.854705341229486
145,42.3764070292084
208,23.250136038585385
209,32.38213014620116
272,17.469427379206564
273,46.2227532290222
336,15.668611147754847
337,51.799682948989016
400,14.797271877095314
401,54.78240871058154
464,19.557132518964725
465,40.563673028697046
2,2, 1, 2, 0,18, 0.00,60.00,Monday
8,16.174101838191152
9,53.48163551018839
144,19.341611647007877
145,43.834496978713794
208,23.07877127507704
209,34.90473241895955
272,17.61649860759905
273,48.82530445704003
336,16.25481886400979
337,53.19022793294355
400,15.232216000850945
401,56.77913403519025
464,19.921659158343783
465,42.29149629086242
2,2, 1, 2, 0,19, 0.00,60.00,Monday
8,16.347940001573303
9,57.36602757719413
144,19.603222723429287
145,46.79290731017132
208,22.710686679401576
209,38.7277649749236
272,17.651673181963996
273,52.844918216668795
336,16.630124501968968
337,56.33899003194178
400,15.582113306793387
401,60.2171981711087
464,19.958330972906058
465,45.78527134756607
2,2, 1, 2, 0,20, 0.00,60.00,Monday
8,16.41975428065587
9,59.3689809107637
144,19.623097561899076
145,48.58288729967159
208,22.32901656585469
209,41.18521577752498
272,17.576804550029596
273,55.19410283275197
336,16.73549400838569
337,58.18798196174844
400,15.743014027943639
401,61.9709593782266
464,19.769760054583553
465,48.15068791864579
2,2, 1, 2, 0,21, 0.00,60.00,Monday
8,16.347841960447884
9,60.33060966269513
144,19.39137148175771
145,49.84216386098327
208,21.883953166734482
209,42.77583286978779
272,17.403710193123466
273,56.437053391739404
336,16.585647836982776
337,59.42485155544208
400,15.714542729356793
401,62.80829895484674
464,19.365436306034205
465,49.92819429920297
2,2, 1, 2, 0,22, 0.00,60.00,Monday
8,16.16987615259264
9,60.511484119253886
144,19.01660280713146
145,50.57786468077625
208,21.379616696344204
209,43.717629837267346
272,17.148992791977122
273,56.86844754777692
336,16.22951547967501
337,60.28196884218363
400,15.543872632767561
401,62.97686291747277
464,18.81728368493275
465,51.21515681218753
2,2, 1, 2, 0,23, 0.00,60.00,Monday
8,15.992760359008566
9,59.947608266650796
144,18.645555172260295
145,50.69068256025415
208,20.894305722424573
209,44.09314021372867
272,16.88598579579362
273,56.63503192730962
336,15.789151684002041
337,60.7338283027193
400,15.320235035359095
401,62.585128439961316
464,18.257661699974864
465,51.941694782762475
2,2, 1, 2, 0,24, 0.00,60.00,Monday
8,15.80596285640821
9,59.655943703898096
144,18.30007509990413
145,50.92914475053922
208,20.400057676805925
209,44.68626544143916
272,16.608466654294975
273,56.67767993814914
336,15.302216057627591
337,61.616123024383654
400,15.044458688513393
401,62.645173464436105
464,17.705318062354117
465,52.874286775696596
2,3, 1, 3, 0, 1, 0.00,60.00,Tuesday
8,15.601246272525705
9,59.012286328837554
144,17.96281875406925
145,50.78200020536686
208,19.9191374038628
209,44.93456369332946
272,16.31595080160281
273,56.37348549639075
336,14.802133105192572
337,62.12719757855848
400,14.71424075822142
401,62.480875111996106
464,17.17017585839147
465,53.39188266515101
2,3, 1, 3, 0, 2, 0.00,60.00,Tuesday
8,15.398520475251102
9,58.416707765635785
144,17.654611994660062
145,50.58971271928707
208,19.47873862721079
209,45.117978323981696
272,16.035887366465833
273,56.07561734694829
336,14.347866766231656
337,62.51618359952605
400,14.401028744954807
401,62.30178375264685
464,16.67518196258935
465,53.83235981336015
2,3, 1, 3, 0, 3, 0.00,60.00,Tuesday
8,15.184496627078788
9,57.687206141647344
144,17.298943346916147
145,50.392480019092254
208,19.03196510664674
209,45.18188271888213
272,15.721595708533565
273,55.72731018020124
336,13.91897955465209
337,62.61222584504654
400,14.103917005422497
401,61.86509166169308
464,16.184763643349836
465,54.09634015963294
2,3, 1, 3, 0, 4, 0.00,60.00,Tuesday
8,14.971244200971958
9,56.67416281736276
144,16.93299550417531
145,49.97512300243448
208,18.593143866666328
209,44.9964151329489
272,15.400449843672732
273,55.125293374125754
336,13.520740203968634
337,62.27020154403127
400,13.824475721722992
401,61.05043275623473
464,15.717414353651167
465,54.01094984714331
2,3, 1, 3, 0, 5, 0.00,60.00,Tuesday
8,14.769075656516344
9,55.636326773345296
144,16.589682270593933
145,49.49182936583639
208,18.180361147749515
209,44.742785065166146
272,15.091764250418793
273,54.48606530868355
336,13.151931545753671
337,61.81166286777895
400,13.567798425343957
401,60.15476404671259
464,15.28395673658111
465,53.81249078641127
2,3, 1, 3, 0, 6, 0.00,60.00,Tuesday
8,14.570198544699211
9,55.352905415678556
144,16.270563670882876
145,49.61343790133622
208,17.79876824305424
209,45.020962419451955
272,14.799810426580292
273,54.53467021400029
336,12.814639959024397
337,62.06620314862457
400,13.334265182061415
401,59.98974721483655
464,14.882379713950378
465,54.242419822661475
2,3, 1, 3, 0, 7, 0.00,60.00,Tuesday
8,14.360795275394075
9,55.739425356979346
144,15.942837324609165
145,50.33541797371331
208,17.418186543761166
209,45.82143416033754
272,14.503150643550542
273,55.226301542308875
336,12.487867712395563
337,62.99131408852998
400,13.096087573562372
401,60.52724441081685
464,14.489631464337323
465,55.273280342089414
2,3, 1, 3, 0, 8, 0.00,60.00,Tuesday
8,14.283200523468281
9,56.0652149536196
144,15.695156444578076
145,51.18544381651051
208,17.26731828926545
209,46.30526690923465
272,14.426945035880102
273,55.54460625090252
336,12.187387906626705
337,64.29626991347256
400,12.874194771839164
401,61.4590573780557
464,14.245171599041212
465,56.20091413905004
2,3, 1, 3, 0, 9, 0.00,60.00,Tuesday
8,14.338184676828531
9,56.509734478493385
144,15.545241052513099
145,52.27928498771242
208,17.447155437009073
209,46.316297622789136
272,14.592410586395573
273,55.5875307479131
336,11.932631171602209
337,66.13321338519698
400,12.674061659759047
401,62.9846943795497
464,14.214238243167095
465,56.96358001984901
2,3, 1, 3, 0,10, 0.00,60.00,Tuesday
8,14.480247533645075
9,55.81754807329201
144,15.46870020510201
145,52.37031393454239
208,17.9383950075075
209,44.76605423572909
272,14.883626128919126
273,54.3833504001778
336,11.822520445906763
337,66.40760743720463
400,12.557268710615412
401,63.27012071284801
464,14.405829381745454
465,56.08734535516225
2,3, 1, 3, 0,11, 0.00,60.00,Tuesday
8,14.7697964363053
9,55.11669131772444
144,15.674804770688525
145,52.00043425303395
208,18.877723269257398
209,42.464572500449414
272,15.34297307117808
273,53.119663933025556
336,12.034936007553265
337,65.87735550080684
400,12.653692825687562
401,63.251768918660815
464,14.934638747954937
465,54.533003813373
2,3, 1, 3, 0,12, 0.00,60.00,Tuesday
8,15.000423454013477
9,58.11699807162671
144,15.990816502967087
145,54.54595558563909
208,19.887659182662695
209,42.706238990303035
272,15.757125098249205
273,55.36536542586156
336,12.466950642432941
337,68.49105475137979
400,12.875207798846782
401,66.6906831986529
464,15.66170444060795
465,55.698524545515404
2,3, 1, 3, 0,13, 0.00,60.00,Tuesday
8,15.145728594009315
9,60.41709322010049
144,16.298292770166167
145,56.12992303304599
208,20.783629062693983
209,42.41772476050494
272,16.041955393309056
273,57.053057967132354
336,12.989941712545255
337,69.44515002924139
400,13.119343091218395
401,68.86636316434125
464,16.45443276625728
465,55.57189959638196
2,3, 1, 3, 0,14, 0.00,60.00,Tuesday
8,15.332431265710424
9,61.641161879118364
144,16.705202182200726
145,56.478373488159725
208,21.6008334935967
209,41.65972340217862
272,16.407106652288643
273,57.55675523263861
336,13.601394524023691
337,68.90896759062099
400,13.45500056226595
401,69.57146564751737
464,17.31968119577744
465,54.322833228134414
2,3, 1, 3, 0,15, 0.00,60.00,Tuesday
8,15.511116570433629
9,62.361374721245944
144,17.218061915895124
145,55.94858237594163
208,22.267817613513788
209,40.92893160727153
272,16.744027513407445
273,57.65201249133904
336,14.308417315577069
337,67.36339355795474
400,13.834079612898433
401,69.4663697129307
464,18.14120767084751
465,52.78824642010022
2,3, 1, 3, 0,16, 0.00,60.00,Tuesday
8,15.641122357983148
9,62.67919756166248
144,17.813308208931954
145,54.61394374200247
208,22.678994463748875
209,40.45073520709037
272,17.024464277514408
273,57.39926950380726
336,15.034622969764014
337,65.15645722269419
400,14.213959902370396
401,68.69795783317811
464,18.837970104750223
465,51.21618243524699
2,3, 1, 3, 0,17, 0.00,60.00,Tuesday
8,15.768568469012004
9,61.69021608870576
144,18.469384101709295
145,51.99978306459539
208,22.834343835573033
209,39.74221813512436
272,17.2478455878615
273,56.15155436835994
336,15.712744187251387
337,61.90773702340412
400,14.614330818660212
401,66.43599181527622
464,19.41501389096897
465,49.01669272137531
2,3, 1, 3, 0,18, 0.00,60.00,Tuesday
8,15.917299974614115
9,59.70384565654634
144,19.037041741047943
145,49.02143984400939
208,22.713668640118332
209,39.08982020827667
272,17.414590266739296
273,54.27989737747267
336,16.271215106592418
337,58.36720131675822
400,15.037281138487222
401,63.173912768586085
464,19.779274145499524
465,46.80393768962717
2,3, 1, 3, 0,19, 0.00,60.00,Tuesday
8,16.042299187604993
9,56.91983685551497
144,19.24298584376371
145,46.490710811800795
208,22.319007058693515
209,38.45091726199384
272,17.413599973786273
273,52.15767140436139
336,16.55904276280715
337,55.06878542860995
400,15.346630023671963
401,59.519333600397296
464,19.76341562391792
465,45.003963499149336
2,3, 1, 3, 0,20, 0.00,60.00,Tuesday
8,16.080414034363926
9,53.93302440785116
144,19.222849879517018
145,44.200879538246845
208,21.89776382969833
209,37.45167442177975
272,17.25141294761096
273,50.046590460325184
336,16.574798899729906
337,52.250511046329386
400,15.465827795620656
401,56.10527570041564
464,19.535330781272695
465,43.34260948360523
2,3, 1, 3, 0,21, 0.00,60.00,Tuesday
8,16.01461424269699
9,52.01609361608043
144,19.022321857704757
145,42.98330972863669
208,21.44576340431364
209,36.97659007071321
272,17.04418415108115
273,48.701731252284596
336,16.3828268281984
337,50.80020231021527
400,15.429017491061325
401,54.01183450454204
464,19.13790622082096
465,42.670266106224176
2,3, 1, 3, 0,22, 0.00,60.00,Tuesday
8,15.89399510865663
9,51.66901790938916
144,18.712878022927523
145,43.205172625758244
208,20.98703016154583
209,37.503613127267165
272,16.833930807557778
273,48.65422489120041
336,16.05180191717716
337,51.14576285625105
400,15.288213154667638
401,53.72104549308711
464,18.628242766626585
465,43.43274085273355
2,3, 1, 3, 0,23, 0.00,60.00,Tuesday
8,15.737964209611903
9,51.64109075497465
144,18.368645753741628
145,43.69167429578394
208,20.50874497994257
209,38.23166255840738
272,16.58425719285805
273,48.91798481219674
336,15.586815302509804
337,52.14144789794153
400,15.065293196981356
401,53.92490275381754
464,18.0638518760293
465,44.53579531089603
2,3, 1, 3, 0,24, 0.00,60.00,Tuesday
8,15.52745506400827
9,51.40222870765845
144,17.980068601655834
145,43.968783528765094
208,19.977005881756558
209,38.80238194860427
272,16.257222928340347
273,49.05133591810542
336,15.031202856686429
337,53.06722699072734
400,14.733960534692352
401,54.09934208500501
464,17.446061078333518
465,45.47513915201645
2,4, 1, 4, 0, 1, 0.00,60.00,Wednesday
8,15.288826215221215
9,50.84870252989548
144,17.590525763886067
145,43.89781828264939
208,19.46231173727404
209,39.02712455653132
272,15.917585543949512
273,48.83340890476598
336,14.46417326712294
337,53.62723346742865
400,14.362040962124121
401,53.98686323497748
464,16.828574490090276
465,46.069699530259555
2,4, 1, 4, 0, 2, 0.00,60.00,Wednesday
8,15.0517356429715
9,50.517640379426524
144,17.216729389254102
145,43.980171967265306
208,18.977131360091267
209,39.36065052488011
272,15.56232591610871
273,48.88160460136313
336,13.923589510386856
337,54.34537626058448
400,14.027592257104802
401,53.98193993456028
464,16.22037248272952
465,46.85909671069015
2,4, 1, 4, 0, 3, 0.00,60.00,Wednesday
8,14.82350376687774
9,50.06061680845471
144,16.848560191223445
145,43.960512659862495
208,18.523792597749807
209,39.541223846781236
272,15.200231948374975
273,48.85567758028197
336,13.405724942906083
337,54.88908768252605
400,13.716277450068445
401,53.79073775336706
464,15.636219097827919
465,47.500625733580705
2,4, 1, 4, 0, 4, 0.00,60.00,Wednesday
8,14.58206718906112
9,49.847463600734734
144,16.444311870181952
145,44.22094935142915
208,18.065178020122058
209,39.89978703339941
272,14.812009588614432
273,49.109643799011536
336,12.88715169468564
337,55.66788550740719
400,13.391971775593367
401,53.85974752769146
464,15.050495794778614
465,48.35661825307482
2,4, 1, 4, 0, 5, 0.00,60.00,Wednesday
8,14.33629200831703
9,50.341932138078086
144,16.0330971460146
145,45.128190831152914
208,17.607841038669587
209,40.82701074346576
272,14.418224344227298
273,50.07387539398824
336,12.380573774716
337,57.20174539537218
400,13.070397046563498
401,54.670084214685886
464,14.480930448859693
465,49.86901085939484
2,4, 1, 4, 0, 6, 0.00,60.00,Wednesday
8,14.08885219435716
9,50.72586218346972
144,15.631887906901389
145,45.91506806485421
208,17.170081018430746
209,41.623864725584255
272,14.035713215645622
273,50.899759666016045
336,11.903226585334636
337,58.53125365914037
400,12.765365580050556
401,55.30287927432666
464,13.944153266787282
465,51.20180839440831
2,4, 1, 4, 0, 7, 0.00,60.00,Wednesday
8,13.832375425968479
9,50.556078240419346
144,15.226861523518286
145,46.19011921108737
208,16.73816742690799
209,41.930535904655784
272,13.650958464905193
273,51.15563790009293
336,11.435449216647426
337,59.17842331166265
400,12.453575897846422
401,55.330129796435756
464,13.418342239344428
465,51.936389963986066
2,4, 1, 4, 0, 8, 0.00,60.00,Wednesday
8,13.79802063852543
9,50.0825382925863
144,14.941062261614581
145,46.50421248386082
208,16.677904416267484
209,41.606325980296795
272,13.628881008377332
273,50.637654044171406
336,11.022173833077128
337,60.12121562363461
400,12.186902771873095
401,55.65771375595572
464,13.148869315573869
465,52.24675987083145
2,4, 1, 4, 0, 9, 0.00,60.00,Wednesday
8,13.942437082535227
9,51.0504132808517
144,14.841742164880436
145,48.165862968568284
208,17.05730048151473
209,41.80433234847455
272,13.918439284873683
273,51.12863991663574
336,10.710339109916847
337,63.142158522566326
400,11.992943012277387
401,57.99733007593422
464,13.15851622575105
465,53.722922734782884
2,4, 1, 4, 0,10, 0.00,60.00,Wednesday
8,14.20792488374074
9,54.22838247716202
144,14.950670789266725
145,51.697967623808374
208,17.78671837215799
209,43.1665444513308
272,14.328288278129008
273,53.80482297115008
336,10.662156322936681
337,68.41210097185383
400,11.975110615694165
401,62.72851877286587
464,13.421020694493935
465,57.061116476817354
2,4, 1, 4, 0,11, 0.00,60.00,Wednesday
8,14.551409288080961