Program Version,EnergyPlus, Version 25.2.0-cf7368216c, YMD=2026.06.01 00:06
1,5,Environment Title[],Latitude[deg],Longitude[deg],Time Zone[],Elevation[m]
2,8,Day of Simulation[],Month[],Day of Month[],DST Indicator[1=yes 0=no],Hour[],StartMinute[],EndMinute[],DayType
3,5,Cumulative Day of Simulation[],Month[],Day of Month[],DST Indicator[1=yes 0=no],DayType  ! When Daily Report Variables Requested
4,2,Cumulative Days of Simulation[],Month[]  ! When Monthly Report Variables Requested
5,1,Cumulative Days of Simulation[] ! When Run Period Report Variables Requested
6,1,Calendar Year of Simulation[] ! When Annual Report Variables Requested
7,9,Environment,Site Outdoor Air Drybulb Temperature [C] !Monthly [Value,Min,Day,Hour,Minute,Max,Day,Hour,Minute]
8,1,BANO,Zone Air Temperature [C] !Hourly
9,1,BANO,Zone Air Relative Humidity [%] !Hourly
144,1,COMERCIO,Zone Air Temperature [C] !Hourly
145,1,COMERCIO,Zone Air Relative Humidity [%] !Hourly
208,1,ESCALERA,Zone Air Temperature [C] !Hourly
209,1,ESCALERA,Zone Air Relative Humidity [%] !Hourly
272,1,RECAMARAPA,Zone Air Temperature [C] !Hourly
273,1,RECAMARAPA,Zone Air Relative Humidity [%] !Hourly
336,1,RECAMARAPB,Zone Air Temperature [C] !Hourly
337,1,RECAMARAPB,Zone Air Relative Humidity [%] !Hourly
400,1,SALA,Zone Air Temperature [C] !Hourly
401,1,SALA,Zone Air Relative Humidity [%] !Hourly
End of Data Dictionary
1,RUN PERIOD 1,  19.40, -99.18,  -6.00,2303.00
2,1, 1, 1, 0, 1, 0.00,60.00,Sunday
8,15.94875998968589
9,34.393551343699414
144,17.747626245613557
145,30.68237607207827
208,15.94554579293625
209,34.40082785970029
272,15.080379342921944
273,36.36487231196044
336,15.296408177823551
337,35.862097485241655
400,16.60311080801768
401,32.9894240909158
2,1, 1, 1, 0, 2, 0.00,60.00,Sunday
8,15.744611835289598
9,34.687396812442785
144,17.325467172992017
145,31.36848214513638
208,15.609531967132968
209,34.98925339522931
272,14.509244357416117
273,37.55878526142693
336,14.981630233242894
337,36.42982520027677
400,15.976452071222264
401,34.178892351825674
2,1, 1, 1, 0, 3, 0.00,60.00,Sunday
8,15.501177093658276
9,35.232920159019855
144,16.908765606032738
145,32.20740218367232
208,15.27129689574891
209,35.757175871253835
272,13.965829092642187
273,38.90457070127297
336,14.61742651275411
337,37.29584865876928
400,15.361547534379776
401,35.55210649862384
2,1, 1, 1, 0, 4, 0.00,60.00,Sunday
8,15.247092282147454
9,35.81247424547512
144,16.511879326745966
145,33.03002205343335
208,14.904542687262106
209,36.61141805782361
272,13.435048081140167
273,40.271529435971466
336,14.27272978603492
337,38.13668989295991
400,14.756255713855102
401,36.96473773552663
2,1, 1, 1, 0, 5, 0.00,60.00,Sunday
8,14.981451652536414
9,36.42994237390919
144,16.096743607828014
145,33.915940414434935
208,14.515164366197306
209,37.54333467134725
272,12.914960304611562
273,41.66339490679179
336,13.9230983919364
337,39.011470210261784
400,14.15784588532316
401,38.42336080680406
2,1, 1, 1, 0, 6, 0.00,60.00,Sunday
8,14.703945552147163
9,37.08772166774532
144,15.664571926536546
145,34.86659048704701
208,14.120665253445537
209,38.514679100809936
272,12.397542971044116
273,43.10188415165271
336,13.565331962983826
337,39.92993407386791
400,13.57721023599091
401,39.900547959645785
2,1, 1, 1, 0, 7, 0.00,60.00,Sunday
8,14.415742938512196
9,37.785023100567905
144,15.224454422799615
145,35.86550152865802
208,13.718752534284759
209,39.5334220138504
272,11.886521852697712
273,44.57733355002074
336,13.203535837559121
337,40.88346704178361
400,13.007823411946296
401,41.41139208655218
2,1, 1, 1, 0, 8, 0.00,60.00,Sunday
8,14.33498684894649
9,37.982625556124965
144,14.788682708560096
145,36.886207330830196
208,13.653072733343416
209,39.70254347887406
272,11.388580027673235
273,46.069579091332706
336,12.839408689121457
337,41.868922092440606
400,12.613391163345456
401,42.49314631246779
2,1, 1, 1, 0, 9, 0.00,60.00,Sunday
8,14.419824714302509
9,38.10063003926201
144,14.410016044657757
145,38.126560101315576
208,13.889585092636159
209,39.43309483557156
272,10.951898661709171
273,47.83462261904618
336,12.509723471002673
337,43.154428178451646
400,12.448195916402623
401,43.32802107607929
2,1, 1, 1, 0,10, 0.00,60.00,Sunday
8,14.577576097558213
9,37.98570691008816
144,14.24332456014241
145,38.81593232469313
208,14.191987951515143
209,38.94607201784822
272,10.731685982524311
273,48.88742793564747
336,12.30905697318351
337,44.04043765834001
400,12.494773956746394
401,43.50614784449581
2,1, 1, 1, 0,11, 0.00,60.00,Sunday
8,14.805573504918874
9,37.49905022431799
144,14.316614864719675
145,38.70274965748215
208,14.586505309933353
209,38.03390773579403
272,10.860506271850904
273,48.55916587450209
336,12.25520863359967
337,44.2772767954753
400,12.860885795851564
401,42.553471466120286
2,1, 1, 1, 0,12, 0.00,60.00,Sunday
8,14.95782892680962
9,37.2002969678275
144,14.563398384893842
145,38.15994206678335
208,14.935888440924337
209,37.25348980997794
272,11.319041219751979
273,47.190578059996035
336,12.392213290891805
337,43.96036686360757
400,13.576367942116159
401,40.68798207298365
2,1, 1, 1, 0,13, 0.00,60.00,Sunday
8,15.115172513846522
9,36.8358468355912
144,15.039551146412824
145,37.017695814434056
208,15.299771414266234
209,36.40216165725669
272,11.9924695136389
273,45.15009789414768
336,12.66739922726623
337,43.18579766566031
400,14.522973439206774
401,38.277370828099784
2,1, 1, 1, 0,14, 0.00,60.00,Sunday
8,15.310533010350838
9,36.346227057221036
144,15.686609764650013
145,35.48278414543486
208,15.732920855491487
209,35.375722293105206
272,12.76037718727607
273,42.89235829279732
336,13.023472957065444
337,42.15594810743219
400,15.572043702314481
401,35.748557202679024
2,1, 1, 1, 0,15, 0.00,60.00,Sunday
8,15.475467649266244
9,35.93404121176683
144,16.324045181313085
145,34.03820696915641
208,16.101806115959423
209,34.52246767078003
272,13.56941739633715
273,40.65169262531797
336,13.41391822169929
337,41.061200241916985
400,16.577087983539254
401,33.497617486380165
2,1, 1, 1, 0,16, 0.00,60.00,Sunday
8,15.60843952232292
9,35.56198980250439
144,16.925393522026692
145,32.69977260629407
208,16.38225469743959
209,33.84665484707437
272,14.431570901603829
273,38.36742989450595
336,13.861648978661535
337,39.80775906145355
400,17.48340400262102
401,31.567319036083607
2,1, 1, 1, 0,17, 0.00,60.00,Sunday
8,15.74306899513379
9,35.16326298354373
144,17.520890998332387
145,31.40668896726341
208,16.62762330562119
209,33.233794451764346
272,15.265237668509927
273,36.262176276469184
336,14.382237976996336
337,38.38460602590922
400,18.286695788371027
401,29.929234630756483
2,1, 1, 1, 0,18, 0.00,60.00,Sunday
8,15.93496619594274
9,34.73895387952515
144,18.055595525834207
145,30.369119321564636
208,16.827431382322533
209,32.81866060453911
272,15.950012019338446
273,34.70729182553206
336,14.918342926155722
337,37.082789588356
400,18.85260835883891
401,28.888836607033923
2,1, 1, 1, 0,19, 0.00,60.00,Sunday
8,16.181694676306048
9,34.20204545240569
144,18.43124724530112
145,29.665907416786936
208,16.94728330640171
209,32.575789744493285
272,16.446751201285725
273,33.62966330193055
336,15.378366476593357
337,36.00747331878615
400,19.116263984358117
401,28.42158040986023
2,1, 1, 1, 0,20, 0.00,60.00,Sunday
8,16.353127711573467
9,33.789152380361664
144,18.64685802749433
145,29.232302987456915
208,16.979273878518228
209,32.47057628349376
272,16.72325486226323
273,33.002782350841535
336,15.689205552539805
337,35.25356069695264
400,19.108464539166466
401,28.4011808700573
2,1, 1, 1, 0,21, 0.00,60.00,Sunday
8,16.40934558216046
9,33.627637122258754
144,18.701783038197664
145,29.096704866316667
208,16.93466812376094
209,32.523264020136246
272,16.73997290332819
273,32.927815943868985
336,15.83696122780438
337,34.87916834855311
400,18.864043647408092
401,28.803450326791648
2,1, 1, 1, 0,22, 0.00,60.00,Sunday
8,16.37521495572105
9,33.683821888232636
144,18.59675307490098
145,29.273974878354235
208,16.808534958678603
209,32.76832990903673
272,16.50553981739711
273,33.40606488792128
336,15.830773065667364
337,34.87532169800307
400,18.446866228682477
401,29.55137380134597
2,1, 1, 1, 0,23, 0.00,60.00,Sunday
8,16.25121828681608
9,33.951230052714315
144,18.370362999327885
145,29.692530555727107
208,16.553132521508946
209,33.30488337840196
272,16.1084272194111
273,34.263140361600676
336,15.704772080284158
337,35.157918299628
400,17.87733689956398
401,30.62881775962146
2,1, 1, 1, 0,24, 0.00,60.00,Sunday
8,16.071984488620874
9,34.34188949232135
144,18.071928129370857
145,30.25448133043612
208,16.242687169528832
209,33.970236408162855
272,15.612236165802514
273,35.36870413518978
336,15.50517530531385
337,35.61076342569091
400,17.22581322127615
401,31.915129654920538
2,2, 1, 2, 0, 1, 0.00,60.00,Monday
8,15.886579186830744
9,34.75120920206253
144,17.719698054611065
145,30.933185593060387
208,15.910621799304067
209,34.698336299517386
272,15.054337333507805
273,36.65944955489049
336,15.252956024145012
337,36.19236839076475
400,16.584803580386506
401,33.23974631146786
2,2, 1, 2, 0, 2, 0.00,60.00,Monday
8,15.68560577317592
9,35.201243821283164
144,17.299905894318396
145,31.764410341376223
208,15.573192190407989
209,35.45617204257709
272,14.47945774462101
273,38.04469177421218
336,14.94102695659229
337,36.926500886332796
400,15.956691694870571
401,34.59810415350731
2,2, 1, 2, 0, 3, 0.00,60.00,Monday
8,15.437527300333427
9,35.765824283665474
144,16.886771390833157
145,32.60669232186418
208,15.219867501403215
209,36.26984511681259
272,13.924590257220183
273,39.43757413381483
336,14.579369304522574
337,37.79840236896254
400,15.32520351174073
401,36.0269253859557
2,2, 1, 2, 0, 4, 0.00,60.00,Monday
8,15.185402237579234
9,36.349743846053244
144,16.495294331046118
145,33.428150885173345
208,14.847191936395014
209,37.15068833962056
272,13.376717089600982
273,40.86932277717734
336,14.236656064211873
337,38.64587611489777
400,14.706298540202226
401,37.49153184250003
2,2, 1, 2, 0, 5, 0.00,60.00,Monday
8,14.930906176250007
9,36.95028937038635
144,16.078869603971818
145,34.32773538583854
208,14.458798094330076
209,38.09442636677163
272,12.830172576831162
273,42.35590004349719
336,13.881861960695701
337,39.54590189827265
400,14.09820869384118
401,38.99615959961222
2,2, 1, 2, 0, 6, 0.00,60.00,Monday
8,14.652395995957363
9,37.52837359525796
144,15.643114797861154
145,35.21187422486728
208,14.05307332004044
209,39.01343093029553
272,12.287173003699815
273,43.785684250244394
336,13.516049296346969
337,40.39954170347297
400,13.495624584862918
401,40.45486016048581
2,2, 1, 2, 0, 7, 0.00,60.00,Monday
8,14.363793048331013
9,38.244111273568244
144,15.204655680449816
145,36.22559807041583
208,13.64075935400561
209,40.08252119253307
272,11.756020161873813
273,45.357071296787446
336,13.152614702034853
337,41.3787999231216
400,12.909802198572605
401,42.043054984222984
2,2, 1, 2, 0, 8, 0.00,60.00,Monday
8,14.290089597043208
9,38.55603948626232
144,14.770848671925096
145,37.37771782681329
208,13.577434847543254
209,40.38321243020885
272,11.246117741837091
273,47.0724736006678
336,12.790050734651492
337,42.51526287442543
400,12.505943526810695
401,43.31414014762532
2,2, 1, 2, 0, 9, 0.00,60.00,Monday
8,14.371392999253482
9,38.48238050472312
144,14.390083962862988
145,38.43674051034154
208,13.804442629778501
209,39.92414325552398
272,10.798886966554049
273,48.65431086729547
336,12.458947486897273
337,43.594636649786054
400,12.328385471071698
401,43.96972994514821
2,2, 1, 2, 0,10, 0.00,60.00,Monday
8,14.525584672344726
9,38.19673838431009
144,14.214614121743757
145,38.97306638218347
208,14.095898410224367
209,39.2750022415045
272,10.56778271538429
273,49.532276903870034
336,12.25180397413311
337,44.303135761555076
400,12.359765629368068
401,43.98964554707559
2,2, 1, 2, 0,11, 0.00,60.00,Monday
8,14.749401750788556
9,37.72098114580304
144,14.26630571689128
145,38.917562469167784
208,14.485115520861173
209,38.371219135541146
272,10.690819983287595
273,49.222904160503184
336,12.181458172767549
337,44.594227418208455
400,12.719266628635692
401,43.04804596656461
2,2, 1, 2, 0,12, 0.00,60.00,Monday
8,14.900814408556192
9,37.42602132948656
144,14.491548025642542
145,38.42865506076897
208,14.835016247772641
209,37.585702418954064
272,11.153085018702377
273,47.82667542001818
336,12.310397150155302
337,44.30267250311408
400,13.426766960817458
401,41.18432474409127
2,2, 1, 2, 0,13, 0.00,60.00,Monday
8,15.056563099373372
9,37.05933451855659
144,14.949173276529288
145,37.318608617451396
208,15.202877603890814
209,36.71312097219263
272,11.852737617027593
273,45.67275761947471
336,12.6040869321761
337,43.46459808828528
400,14.379671757019324
401,38.72207309339117
2,2, 1, 2, 0,14, 0.00,60.00,Monday
8,15.262280004984826
9,36.53315662138155
144,15.599356214655627
145,35.754381114547876
208,15.65485031569702
209,35.62541376242663
272,12.677158392433753
273,43.215722763974036
336,13.000938931192932
337,42.304173633212166
400,15.445075512095022
401,36.11444665616148
2,2, 1, 2, 0,15, 0.00,60.00,Monday
8,15.446468602674456
9,36.06491845970516
144,16.259981916759912
145,34.23838524329029
208,16.055440437039707
209,34.68645229485163
272,13.546109620446108
273,40.78642779642332
336,13.434909200927223
337,41.07812353113877
400,16.471421282600772
401,33.78393412261392
2,2, 1, 2, 0,16, 0.00,60.00,Monday
8,15.596600268288698
9,35.6615422036077
144,16.881648349923438
145,32.85756400493668
208,16.35795975080291
209,33.968215919252614
272,14.4475319558448
273,38.406228243741815
336,13.920081900174422
337,39.73789522509012
400,17.412184847858786
401,31.77444479699615
2,2, 1, 2, 0,17, 0.00,60.00,Monday
8,15.735812764003931
9,35.27399708468682
144,17.488514854456948
145,31.55539066603788
208,16.61440386807179
209,33.35098111479729
272,15.300201008681022
273,36.27787070729698
336,14.457149802154001
337,38.30163527361142
400,18.226261598159837
401,30.123584238785174
2,2, 1, 2, 0,18, 0.00,60.00,Monday
8,15.944884001039929
9,34.74387936004365
144,18.025135304385582
145,30.45106117311172
208,16.81291270855709
209,32.874317442910794
272,16.00165831284777
273,34.62019845260906
336,15.005507772978547
337,36.90396418436497
400,18.788080201320515
401,29.028103061995797
2,2, 1, 2, 0,19, 0.00,60.00,Monday
8,16.17764864477725
9,34.191846065355655
144,18.385888191989164
145,29.733893544063864
208,16.922366155333073
209,32.609267461851026
272,16.499126490300558
273,33.499030932128456
336,15.45224870022502
337,35.8170818822093
400,19.025583620119708
401,28.566997294852346
2,2, 1, 2, 0,20, 0.00,60.00,Monday
8,16.310334849666557
9,33.87592678226604
144,18.539802417125635
145,29.42408545685963
208,16.950016333899615
209,32.52563679946032
272,16.717886966593237
273,33.00856679427501
336,15.704313438325821
337,35.213559643677875
400,18.9930467639069
401,28.601898031872313
2,2, 1, 2, 0,21, 0.00,60.00,Monday
8,16.30700602993586
9,33.855813335758064
144,18.49269172720655
145,29.487357321852475
208,16.874101747502436
209,32.65642934480646
272,16.673721663808227
273,33.07479098719788
336,15.768193505169798
337,35.04141051459915
400,18.696936179450123
401,29.113312874017026
2,2, 1, 2, 0,22, 0.00,60.00,Monday
8,16.209658812265577
9,34.055378632708575
144,18.3135110917453
145,29.810851901359694
208,16.708610825190153
209,32.99066200367806
272,16.423678515796578
273,33.594476740405845
336,15.703943318778661
337,35.174218955613064
400,18.233833128219214
401,29.96152730438925
2,2, 1, 2, 0,23, 0.00,60.00,Monday
8,16.062914858692903
9,34.37592485611383
144,18.047936208820364
145,30.31259910244007
208,16.468572730291218
209,33.49830406318604
272,16.048158023116084
273,34.409329127259944
336,15.55132258451619
337,35.52009655325238
400,17.678750525396893
401,31.02707860748673
2,2, 1, 2, 0,24, 0.00,60.00,Monday
8,15.894372063998553
9,34.74823933522096
144,17.726909945328522
145,30.93172526034113
208,16.20637513803961
209,34.06288350871403
272,15.588567973446514
273,35.4367234149635
336,15.33472889862351
337,36.017453132531436
400,17.08086983108095
401,32.222270507006165
2,3, 1, 3, 0, 1, 0.00,60.00,Tuesday
8,15.730561345298513
9,35.1143856303831
144,17.34984881428251
145,31.677248235232565
208,15.944197941701134
209,34.63790603406658
272,15.099516908828248
273,36.56744479181988
336,15.07918002152853
337,36.61425670257733
400,16.520679444234954
401,33.3887313622614
2,3, 1, 3, 0, 2, 0.00,60.00,Tuesday
8,15.561973261729449
9,35.495810023028035
144,16.96216700449246
145,32.46435878344744
208,15.681747171344698
209,35.224671688377526
272,14.635463801641961
273,37.67776399381975
336,14.800432958357446
337,37.277914692248885
400,16.013255869970877
401,34.48650324368951
2,3, 1, 3, 0, 3, 0.00,60.00,Tuesday
8,15.377310367409903
9,35.91897236176141
144,16.62198707774748
145,33.17315882161826
208,15.399083907776472
209,35.869089165135954
272,14.22534027340113
273,38.69041786717374
336,14.512139101495833
337,37.978296740359276
400,15.538090173768603
401,35.55143510378172
2,3, 1, 3, 0, 4, 0.00,60.00,Tuesday
8,15.171116576797521
9,36.398112340825755
144,16.310223182536884
145,33.83818752991746
208,15.112783567054093
209,36.53522276531829
272,13.85792339148829
273,39.62381042720873
336,14.260768650369323
337,38.60109454632836
400,15.095405411736246
401,36.576800362737686
2,3, 1, 3, 0, 5, 0.00,60.00,Tuesday
8,14.962696027229853
9,36.88973284914682
144,15.988192612499232
145,34.54094629607306
208,14.825953112693965
209,37.21658825128345
272,13.503483329243027
273,40.548312949173685
336,14.011475896618883
337,39.23013907140955
400,14.67104515237117
401,37.59114867866665
2,3, 1, 3, 0, 6, 0.00,60.00,Tuesday
8,14.750450146226795
9,37.39802719801779
144,15.656051387284537
145,35.28295308030676
208,14.537079955356083
209,37.91721524158645
272,13.153066775725819
273,41.48619356499223
336,13.758812579308703
337,39.87946469426338
400,14.256538311649221
401,38.61243591104738
2,3, 1, 3, 0, 7, 0.00,60.00,Tuesday
8,14.53158691562224
9,37.93044465216073
144,15.3208846020542
145,36.049861049881976
208,14.242729119547453
209,38.646437238550384
272,12.806309867212365
273,42.43822957488184
336,13.496896006803278
337,40.56530232289395
400,13.85080217294019
401,39.64243789953908
2,3, 1, 3, 0, 8, 0.00,60.00,Tuesday
8,14.445753232241755
9,38.14123656847746
144,14.991235045322568
145,36.8224000161436
208,14.163426104847032
209,38.8452157660493
272,12.470728569493252
273,43.38292670246823
336,13.235749945595847
337,41.26227392161419
400,13.554149990046646
401,40.413888792082844
2,3, 1, 3, 0, 9, 0.00,60.00,Tuesday
8,14.496510542356042
9,38.19999506886126
144,14.698615215590891
145,37.705340669782395
208,14.332397634271183
209,38.60783872761693
272,12.174161215233582
273,44.45151547109356
336,12.99704468662433
337,42.11403924300353
400,13.435027153494794
401,40.92578849047146
2,3, 1, 3, 0,10, 0.00,60.00,Tuesday
8,14.634900060280993
9,38.018169513846026
144,14.548047152625983
145,38.231954851400594
208,14.627639460105428
209,38.03660951636263
272,12.025201717094776
273,45.07634734345498
336,12.844534092837485
337,42.71350382765053
400,13.524196478453662
401,40.85863539275857
2,3, 1, 3, 0,11, 0.00,60.00,Tuesday
8,14.829363736193544
9,37.591122303874485
144,14.569151818725027
145,38.22772787007522
208,14.98737710167027
209,37.2108558443391
272,12.077619954992805
273,44.97739994843251
336,12.780032046171355
337,42.9481133632701
400,13.846583369790443
401,40.061718872260705
2,3, 1, 3, 0,12, 0.00,60.00,Tuesday
8,14.942359615894036
9,37.364595857573285
144,14.709542778149677
145,37.93012676824065
208,15.270485502926704
209,36.58414878462019
272,12.359913425499661
273,44.20520320729156
336,12.829655840795022
337,42.86206349388283
400,14.382584124688384
401,38.74263209442538
2,3, 1, 3, 0,13, 0.00,60.00,Tuesday
8,15.036282050487445
9,37.14717620615176
144,15.033365217607262
145,37.15526838581698
208,15.497622809629833
209,36.062359280549884
272,12.79981606851336
273,42.95685112670665
336,12.989780393298103
337,42.42430442906905
400,15.094824383879304
401,37.011659969980826
2,3, 1, 3, 0,14, 0.00,60.00,Tuesday
8,15.176520471343357
9,36.79449565080788
144,15.511473763539094
145,36.013245669873946
208,15.794007646896496
209,35.36569608982494
272,13.328265233976511
273,41.477439170644345
336,13.226831122052403
337,41.75066437505519
400,15.887562998622913
401,35.158143486931834
2,3, 1, 3, 0,15, 0.00,60.00,Tuesday
8,15.302763965447818
9,36.47814886127173
144,16.05716295918685
145,34.75905346737855
208,16.045455128366978
209,34.78350431811645
272,13.989847963091828
273,39.709891346607876
336,13.5277212038427
337,40.91830254244905
400,16.663094366642383
401,33.44444605354159
2,3, 1, 3, 0,16, 0.00,60.00,Tuesday
8,15.408215921334106
9,36.178398211381435
144,16.60041439887358
145,33.52663499317391
208,16.281386143785912
209,34.2130462237349
272,14.725097271626458
273,37.80888731574387
336,13.887872808063724
337,39.91222379166125
400,17.422756850964024
401,31.825094309545207
2,3, 1, 3, 0,17, 0.00,60.00,Tuesday
8,15.536470903416129
9,35.80463861671583
144,17.147345969146354
145,32.31299065235004
208,16.494507962573937
209,33.67883518632896
272,15.44519258283212
273,36.01809745994979
336,14.336447961626966
337,38.68464753349573
400,18.129599451481763
401,30.37193603052371
2,3, 1, 3, 0,18, 0.00,60.00,Tuesday
8,15.694094797963494
9,35.42542887755951
144,17.649780323632484
145,31.285113914831502
208,16.65655566863368
209,33.31500603196148
272,16.03155430826659
273,34.67016046659241
336,14.814643431518482
337,37.48680511619881
400,18.619800130032107
401,29.434418538184858
2,3, 1, 3, 0,19, 0.00,60.00,Tuesday
8,15.893432278749222
9,34.9850902785577
144,18.01480465499952
145,30.580913987795043
208,16.72243720058798
209,33.184055148152886
272,16.444321363053305
273,33.77695124141574
336,15.230030853256729
337,36.50599123742855
400,18.786166809927646
401,29.13636140110329
2,3, 1, 3, 0,20, 0.00,60.00,Tuesday
8,16.034167176631506
9,34.671634017119466
144,18.185090967928684
145,30.254959628985564
208,16.700035750413655
209,33.231339830752056
272,16.63123020504084
273,33.37702103279375
336,15.490032205487745
337,35.900838306485234
400,18.76751046091969
401,29.17044058209453
2,3, 1, 3, 0,21, 0.00,60.00,Tuesday
8,16.057109801773514
9,34.620816589878295
144,18.171476787950123
145,30.28086413626332
208,16.601474606801656
209,33.440353692126166
272,16.580847924499935
273,33.48426347016838
336,15.565158978392303
337,35.72808859070886
400,18.500830298616005
401,29.66226838104656
2,3, 1, 3, 0,22, 0.00,60.00,Tuesday
8,15.979975172232187
9,34.79192543981205
144,18.011418606607204
145,30.58731097416967
208,16.429508512075667
209,33.808440468698976
272,16.309029703902574
273,34.0695985576539
336,15.496527732902292
337,35.88580390068443
400,18.035776707467203
401,30.541759901552396
2,3, 1, 3, 0,23, 0.00,60.00,Tuesday
8,15.838952047325717
9,35.10717940343613
144,17.747377453811783
145,31.10038974376953
208,16.192386979852063
209,34.32358466686845
272,15.875173261561942
273,35.02732399577958
336,15.326963197729912
337,36.27875035847422
400,17.445575465514597
401,31.700264265414308
2,3, 1, 3, 0,24, 0.00,60.00,Tuesday
8,15.6728113312807
9,35.48262771143289
144,17.407184608416348
145,31.77570062065105
208,15.901501750461376
209,34.96741556421293
272,15.34613876642998
273,36.23589759368728
336,15.090142172320304
337,36.83558925677601
400,16.802205116003837
401,33.0187885504663
2,4, 1, 4, 0, 1, 0.00,60.00,Wednesday
8,15.482216812383639
9,35.9189400472415
144,17.007114999661972
145,32.59088434977536
208,15.595841030413524
209,35.65852871531097
272,14.788659202659368
273,37.55985059754154
336,14.790258991577005
337,37.554528242213685
400,16.180684984537944
401,34.351117923607184
2,4, 1, 4, 0, 2, 0.00,60.00,Wednesday
8,15.260512878112301
9,36.434066371620496
144,16.61023680551142
145,33.42244988278353
208,15.267028723590363
209,36.41923077241429
272,14.25099104030902
273,38.88802927688278
336,14.451011720463564
337,38.386538667338044
400,15.575539476898834
401,35.70671751239258
2,4, 1, 4, 0, 3, 0.00,60.00,Wednesday
8,15.03904080903168
9,36.956766280389594
144,16.246863805027647
145,34.204824455221825
208,14.921097156654135
209,37.239146916011485
272,13.735774058328587
273,40.21055050703875
336,14.141844640837979
337,39.162729050681875
400,14.985970611716937
401,37.08531813793425
2,4, 1, 4, 0, 4, 0.00,60.00,Wednesday
8,14.808694578790366
9,37.509552877930325
144,15.887288939107835
145,34.99951965219175
208,14.558657499752023
209,38.12056358963607
272,13.230803360124746
273,41.5558999579431
336,13.839881787840904
337,39.93801326029786
400,14.409054710708226
401,38.4925232765616
2,4, 1, 4, 0, 5, 0.00,60.00,Wednesday
8,14.563420748403514
9,38.108253908643455
144,15.511845304092136
145,35.851421882235904
208,14.18781047123307
209,39.04655082520804
272,12.73535627250678
273,42.92510377992415
336,13.530685455109454
337,40.74972468499492
400,13.849277683807815
401,39.9151906907729
2,4, 1, 4, 0, 6, 0.00,60.00,Wednesday
8,14.308591987813157
9,38.65715062462556
144,15.127109539698152
145,36.66831124263181
208,13.81084665185084
209,39.926423737130285
272,12.246452633663518
273,44.229023462675315
336,13.216494423424535
337,41.50271685135842
400,13.301645731466536
401,41.27402092405248
2,4, 1, 4, 0, 7, 0.00,60.00,Wednesday
8,14.044969410232467
9,39.29779179501763
144,14.736011641834805
145,37.57980092406946
208,13.428046703720923
209,40.907441878300034
272,11.762261020866598
273,45.63447347621477
336,12.891174924330146
337,42.36764069841459
400,12.761623278591813
401,42.7302753112131
2,4, 1, 4, 0, 8, 0.00,60.00,Wednesday
8,13.986743366477668
9,39.507089239778175
144,14.341097287778139
145,38.610936651524234
208,13.380396408779665
209,41.09788006629156
272,11.284160229293
273,47.174403517866104
336,12.558513284045631
337,43.368773916853534
400,12.393123932992774
401,43.84174153346391
2,4, 1, 4, 0, 9, 0.00,60.00,Wednesday
8,14.077777011140357
9,39.33445173607529
144,13.99207877485869
145,39.55442671680709
208,13.616480383320393
209,40.531800031528725
272,10.859478475157175
273,48.5976384778186
336,12.25117248890844
337,44.32132520422078
400,12.228591866156703
401,44.386699729971156
2,4, 1, 4, 0,10, 0.00,60.00,Wednesday
8,14.240471274675373
9,38.979118118594556
144,13.843307558352848
145,39.99641990566719
208,13.917427160889966
209,39.80521545652825
272,10.64006157151069
273,49.38410944923032
336,12.062492155984541
337,44.940802762129806
400,12.27144651106849
401,44.326755910406774
2,4, 1, 4, 0,11, 0.00,60.00,Wednesday
8,14.477438997593795
9,38.44061899551924
144,13.912188244487162
145,39.87481747464104
208,14.31252890332879
209,38.85378103100395
272,10.742935623054775
273,49.11742105924825
336,12.00064140337181
337,45.188757289988466
400,12.628846906057502
401,43.36164544651646
2,4, 1, 4, 0,12, 0.00,60.00,Wednesday
8,14.625214073085587
9,38.12928738056342
144,14.147954025793526
145,39.326019420278314
208,14.650907981989599
209,38.06661035336952
272,11.171914636412682
273,47.806421522344294
336,12.12142807189764
337,44.8946160248953
400,13.316698488867706
401,41.515464007356975
2,4, 1, 4, 0,13, 0.00,60.00,Wednesday
8,14.780760979496682
9,37.74809550790803
144,14.614872535473786
145,38.15669835014531
208,15.005749226039205
209,37.20557101693084
272,11.826919211873701
273,45.77928014352441
336,12.390200775871554
337,44.107610647933825
400,14.247298345083857
401,39.08017463484009
2,4, 1, 4, 0,14, 0.00,60.00,Wednesday
8,14.983604522789511
9,37.2191886646879
144,15.270163884514774
145,36.542471886472924
208,15.43731356188809
209,36.15010059353486
272,12.581873686665437
273,43.5148722508923
336,12.751456227857872
337,43.02981265144361
400,15.293951747857063
401,36.49097181744279
2,4, 1, 4, 0,15, 0.00,60.00,Wednesday
8,15.15936674424303
9,36.76228895041993
144,15.930805738162382
145,34.990390491680145
208,15.808355868952292
209,35.26350548181297
272,13.39983729564383
273,41.20579073318482
336,13.15990175895216
337,41.85147143947006
400,16.308520633748657
401,34.16022194578281
2,4, 1, 4, 0,16, 0.00,60.00,Wednesday
8,15.306059673690578
9,36.385154514073385
144,16.562726258270654
145,33.57864890046421
208,16.104471271149386
209,34.57171572826244
272,14.277433651568876
273,38.88710174645581
336,13.6199658516703
337,40.5793250420073
400,17.249626959136137
401,32.14932131888208
2,4, 1, 4, 0,17, 0.00,60.00,Wednesday
8,15.456083499516213
9,36.00839348470675
144,17.197334506778997
145,32.228042955818765
208,16.369004083669683
209,33.96677697580234
272,15.127770347688307
273,36.780478972422095
336,14.153280561935901
337,39.167261385465565
400,18.102047445062173
401,30.441186784461408
2,4, 1, 4, 0,18, 0.00,60.00,Wednesday
8,15.654764491980151
9,35.493699555582054
144,17.776128845012334
145,31.018788175337402
208,16.561089905361523
209,33.497820639779384
272,15.837248694270292
273,35.08376103401631
336,14.715418123223792
337,37.70578665206818
400,18.69191910809257
401,29.28474319233169
2,4, 1, 4, 0,19, 0.00,60.00,Wednesday
8,15.901529313919292
9,34.857133959635576
144,18.18452405083764
145,30.161370125341207
208,16.653597943211462
209,33.22468736896073
272,16.357068063645652
273,33.8587635747567
336,15.196641672790674
337,36.46967798333536
400,18.943823215306274
401,28.760036213770462
2,4, 1, 4, 0,20, 0.00,60.00,Wednesday
8,16.080709886114672
9,34.42683023926212
144,18.395864563344734
145,29.734767069151975
208,16.69631430537272
209,33.10272700512682
272,16.596766464714168
273,33.31296362119351
336,15.485602284369927
337,35.763648090829925
400,18.949867460202963
401,28.721538366367867
2,4, 1, 4, 0,21, 0.00,60.00,Wednesday
8,16.125419977209074
9,34.32861004411766
144,18.407859078336106
145,29.71237303810506
208,16.645263827983307
209,33.21038523740759
272,16.53494926720254
273,33.4444207935211
336,15.575837861781062
337,35.55705722457478
400,18.674476274351857
401,29.2209513460981
2,4, 1, 4, 0,22, 0.00,60.00,Wednesday
8,16.072079171074606
9,34.44577346558479
144,18.282280320901886
145,29.94754150623011
208,16.49124045321143
209,33.53761399957846
272,16.261052762995153
273,34.03352531174317
336,15.538549176742592
337,35.6422195843922
400,18.228630878006708
401,30.04977714363162
2,4, 1, 4, 0,23, 0.00,60.00,Wednesday
8,15.955602614037266
9,34.70316497864251
144,18.072875580541
145,30.344288531608488
208,16.24481600784766
209,34.068537021344646