Program Version,EnergyPlus, Version 25.2.0-cf7368216c, YMD=2026.06.02 13:08
1,5,Environment Title[],Latitude[deg],Longitude[deg],Time Zone[],Elevation[m]
2,8,Day of Simulation[],Month[],Day of Month[],DST Indicator[1=yes 0=no],Hour[],StartMinute[],EndMinute[],DayType
3,5,Cumulative Day of Simulation[],Month[],Day of Month[],DST Indicator[1=yes 0=no],DayType  ! When Daily Report Variables Requested
4,2,Cumulative Days of Simulation[],Month[]  ! When Monthly Report Variables Requested
5,1,Cumulative Days of Simulation[] ! When Run Period Report Variables Requested
6,1,Calendar Year of Simulation[] ! When Annual Report Variables Requested
7,1,Environment,Site Outdoor Air Drybulb Temperature [C] !Hourly
8,1,BANO,Zone Mean Air Temperature [C] !Hourly
9,1,CIRCULACION,Zone Mean Air Temperature [C] !Hourly
10,1,COMERCIO,Zone Mean Air Temperature [C] !Hourly
11,1,ESCALERA,Zone Mean Air Temperature [C] !Hourly
12,1,RECAMARAPA,Zone Mean Air Temperature [C] !Hourly
13,1,RECAMARAPB,Zone Mean Air Temperature [C] !Hourly
14,1,SALA,Zone Mean Air Temperature [C] !Hourly
End of Data Dictionary
1,RUN PERIOD 1,  19.40, -99.18,  -6.00,2303.00
2,1, 1, 1, 0, 1, 0.00,60.00,Sunday
7,7.983333333333334
8,15.768492477278924
9,18.15654234608193
10,20.1692943403851
11,16.30876803714874
12,14.773841829401626
13,14.89329708996314
14,17.231999683675923
2,1, 1, 1, 0, 2, 0.00,60.00,Sunday
7,6.816666666666667
8,15.50394452957948
9,17.72849687119768
10,19.644201317235463
11,15.92452516631846
12,14.19093243229556
13,14.497494139596443
14,16.59245565077438
2,1, 1, 1, 0, 3, 0.00,60.00,Sunday
7,6.108333333333334
8,15.255422275545795
9,17.330852016743034
10,19.148583406959673
11,15.554413809743636
12,13.640327874520963
13,14.143587130756929
14,15.975347104062001
2,1, 1, 1, 0, 4, 0.00,60.00,Sunday
7,5.2
8,14.984566751874114
9,16.90063531196007
10,18.648138906050843
11,15.161789387551345
12,13.09039865707137
13,13.786048249207882
14,15.358998022987933
2,1, 1, 1, 0, 5, 0.00,60.00,Sunday
7,4.466666666666667
8,14.711363047530158
9,16.45722771717439
10,18.15576524821394
11,14.746462426544324
12,12.54903081963968
13,13.423759951512151
14,14.752931546000141
2,1, 1, 1, 0, 6, 0.00,60.00,Sunday
7,4.6499999999999995
8,14.463531315927154
9,16.055085863304374
10,17.709444102925783
11,14.358371732257522
12,12.051522956759825
13,13.099907453354804
14,14.201855377604671
2,1, 1, 1, 0, 7, 0.00,60.00,Sunday
7,4.841666666666667
8,14.19640183532544
9,15.648823907267008
10,17.266206275829436
11,13.96510109444232
12,11.569571643123082
13,12.766945243152904
14,13.667513042087966
2,1, 1, 1, 0, 8, 0.00,60.00,Sunday
7,5.8500000000000005
8,14.146211320891206
9,15.338361159843288
10,17.169868259071844
11,13.920739445524198
12,11.132520874689169
13,12.463406195099571
14,13.371935424318737
2,1, 1, 1, 0, 9, 0.00,60.00,Sunday
7,9.808333333333334
8,14.335909338160855
9,15.314257558572043
10,17.616496545105203
11,14.26074215843453
12,10.872543052293596
13,12.314407632000316
14,13.441162915660106
2,1, 1, 1, 0,10, 0.00,60.00,Sunday
7,13.5
8,14.599594784451234
9,15.413296854847609
10,18.34687078391406
11,14.67358652476682
12,10.82964810980743
13,12.289830426780624
14,13.710877192270937
2,1, 1, 1, 0,11, 0.00,60.00,Sunday
7,15.958333333333334
8,14.897748930276236
9,15.59843069316964
10,19.286245405052046
11,15.14526198819678
12,11.049242551891219
13,12.353802247105314
14,14.240552681759274
2,1, 1, 1, 0,12, 0.00,60.00,Sunday
7,18.400000000000002
8,15.123920022642809
9,15.90953909386902
10,20.28723150681571
11,15.594704546092245
12,11.591523640753442
13,12.599436941509039
14,15.059996424671416
2,1, 1, 1, 0,13, 0.00,60.00,Sunday
7,20.158333333333335
8,15.328199840137833
9,16.31620456600732
10,21.2482883497966
11,16.00818093614839
12,12.338948783224668
13,12.973751668705754
14,16.065632699974127
2,1, 1, 1, 0,14, 0.00,60.00,Sunday
7,21.400000000000002
8,15.558309942464335
9,16.827233214556
10,22.095767145831633
11,16.47920927789769
12,13.197032380096537
13,13.405149828724483
14,17.126692699018378
2,1, 1, 1, 0,15, 0.00,60.00,Sunday
7,22.65833333333333
8,15.764079244040362
9,17.45403170108509
10,22.78760901187759
11,16.92381213839742
12,14.05802592489053
13,13.84883208503959
14,18.14000053704858
2,1, 1, 1, 0,16, 0.00,60.00,Sunday
7,22.5
8,15.907676675294178
9,18.134426795224996
10,23.26046763027847
11,17.243643879639166
12,14.8696322390433
13,14.274702563283526
14,19.00152692036977
2,1, 1, 1, 0,17, 0.00,60.00,Sunday
7,21.241666666666667
8,16.023858577443892
9,18.799234698766057
10,23.4490420836585
11,17.471198455454996
12,15.62011254454143
13,14.717981513996241
14,19.64718572347335
2,1, 1, 1, 0,18, 0.00,60.00,Sunday
7,22.15833333333333
8,16.233713701107124
9,19.474735606792077
10,23.393457049057858
11,17.726929674687543
12,16.32211353552066
13,15.243370954085286
14,20.14749271056882
2,1, 1, 1, 0,19, 0.00,60.00,Sunday
7,22.208333333333332
8,16.490434852513193
9,19.931594207309413
10,23.130655262496123
11,17.8984422942162
12,16.813143047570126
13,15.697067044155522
14,20.325243213690563
2,1, 1, 1, 0,20, 0.00,60.00,Sunday
7,17.358333333333334
8,16.526644692572084
9,19.893823409055262
10,22.668651882158432
11,17.735354605946988
12,16.87395759810735
13,15.828408535716443
14,20.034848316380124
2,1, 1, 1, 0,21, 0.00,60.00,Sunday
7,13.816666666666668
8,16.464185255948887
9,19.64113282377559
10,22.175396265559854
11,17.49790383618161
12,16.690877479271595
13,15.812382304356332
14,19.583194924213327
2,1, 1, 1, 0,22, 0.00,60.00,Sunday
7,12.875
8,16.386073848440336
9,19.422380554036703
10,21.775015117296192
11,17.329630704339063
12,16.411098025569434
13,15.755411191987152
14,19.132487223821148
2,1, 1, 1, 0,23, 0.00,60.00,Sunday
7,11.56666666666667
8,16.213703551402705
9,19.060599605997243
10,21.3038079326185
11,17.05212938040864
12,15.95312692989897
13,15.56173153003595
14,18.549871962319372
2,1, 1, 1, 0,24, 0.00,60.00,Sunday
7,9.674999999999999
8,15.980278198157002
9,18.597085917931878
10,20.723768266341853
11,16.680639803076193
12,15.370375630820847
13,15.249048344464661
14,17.88178140473617
2,2, 1, 2, 0, 1, 0.00,60.00,Monday
7,8.216666666666667
8,15.729156636019882
9,18.159032451158335
10,20.15276143963961
11,16.291652528258783
12,14.762026127709369
13,14.871146066126697
14,17.224701445173878
2,2, 1, 2, 0, 2, 0.00,60.00,Monday
7,7.158333333333334
8,15.470017942260261
9,17.738520245790227
10,19.635807104246304
11,15.911384363417492
12,14.180210953466172
13,14.480800549869732
14,16.58873591631676
2,2, 1, 2, 0, 3, 0.00,60.00,Monday
7,5.4750000000000005
8,15.182591167027526
9,17.275680627846157
10,19.083824492176223
11,15.486475117926062
12,13.580423044713754
13,14.08199739823196
14,15.916169320429276
2,2, 1, 2, 0, 4, 0.00,60.00,Monday
7,4.7749999999999995
8,14.916880172201493
9,16.8491740937186
10,18.583435840230624
11,15.0869692819965
12,13.0143839878942
13,13.723954548939842
14,15.283544959560976
2,2, 1, 2, 0, 5, 0.00,60.00,Monday
7,4.8999999999999995
8,14.682352563634753
9,16.46580217525999
10,18.150533782103647
11,14.712755905202764
12,12.490789775867341
13,13.407288718009704
14,14.708076673559901
2,2, 1, 2, 0, 6, 0.00,60.00,Monday
7,5.133333333333334
8,14.437333059855794
9,16.064811660081805
10,17.706347087220152
11,14.319078216805158
12,11.974038540941246
13,13.083120458109704
14,14.141588710955523
2,2, 1, 2, 0, 7, 0.00,60.00,Monday
7,5.183333333333334
8,14.165450937268934
9,15.642307456733107
10,17.250905228843617
11,13.911183476936856
12,11.465741985330316
13,12.741347652308738
14,13.583420583754675
2,2, 1, 2, 0, 8, 0.00,60.00,Monday
7,6.033333333333334
8,14.116927980415065
9,15.317773375862465
10,17.15228064218292
11,13.863219111633287
12,11.008557529887248
13,12.429087921696118
14,13.272109093056732
2,2, 1, 2, 0, 9, 0.00,60.00,Monday
7,8.741666666666667
8,14.269171482658278
9,15.224165836946902
10,17.538079437876352
11,14.156193193752921
12,10.691639197403243
13,12.231472978711096
14,13.286762508758864
2,2, 1, 2, 0,10, 0.00,60.00,Monday
7,13.233333333333333
8,14.547539739208169
9,15.351080072817197
10,18.286823826905824
11,14.57602917523072
12,10.657014789663668
13,12.22220029938405
14,13.562585946044047
2,2, 1, 2, 0,11, 0.00,60.00,Monday
7,16.916666666666668
8,14.883099218380986
9,15.601609063945366
10,19.27065382851566
11,15.088979193603924
12,10.927488466981421
13,12.329587519840098
14,14.134619426331051
2,2, 1, 2, 0,12, 0.00,60.00,Monday
7,19.516666666666666
8,15.114680937242335
9,15.93415380292123
10,20.251960503898037
11,15.551114841306848
12,11.479752601018449
13,12.57551784776936
14,14.95790591432091
2,2, 1, 2, 0,13, 0.00,60.00,Monday
7,21.241666666666667
8,15.3172012368708
9,16.372111154899276
10,21.198275108383452
11,15.966711080234965
12,12.25660761524337
13,12.97489159692846
14,15.968838985153335
2,2, 1, 2, 0,14, 0.00,60.00,Monday
7,22.400000000000002
8,15.553068285661022
9,16.91129731760353
10,22.028629654724188
11,16.450863019694182
12,13.169660267744169
13,13.441998081229718
14,17.03968033573027
2,2, 1, 2, 0,15, 0.00,60.00,Monday
7,23.541666666666668
8,15.77506344295721
9,17.56779940171849
10,22.672751882989516
11,16.92190539411099
12,14.099975195762942
13,13.923803158082068
14,18.053447620343857
2,2, 1, 2, 0,16, 0.00,60.00,Monday
7,22.95
8,15.925604112163496
9,18.235924986651074
10,23.093592769335306
11,17.254871081452695
12,14.927774803987234
13,14.363689953460854
14,18.918179722184167
2,2, 1, 2, 0,17, 0.00,60.00,Monday
7,21.091666666666665
8,16.028221000488113
9,18.854684632935776
10,23.2500786845419
11,17.469128692786054
12,15.668444894150092
13,14.79695293725811
14,19.55709000973783
2,2, 1, 2, 0,18, 0.00,60.00,Monday
7,19.191666666666666
8,16.17234581834529
9,19.341589741912482
10,23.07871442812049
11,17.616209095899375
12,16.254652553151136
13,15.231904586799578
14,19.921615240890596
2,2, 1, 2, 0,19, 0.00,60.00,Monday
7,17.233333333333334
8,16.344348754510936
9,19.60320179982369
10,22.710630236367248
11,17.651390597418786
12,16.62996147920642
13,15.581809048777464
14,19.95828881865395
2,2, 1, 2, 0,20, 0.00,60.00,Monday
7,15.233333333333334
8,16.41383902607276
9,19.623077301744974
10,22.32896055921149
11,17.576535464226705
12,16.73533299694687
13,15.742717153680822
14,19.769719955626357
2,2, 1, 2, 0,21, 0.00,60.00,Monday
7,13.233333333333334
8,16.339200510193752
9,19.391350290536256
10,21.883897807240185
11,17.403451199436834
12,16.585491971397012
13,15.714253376908687
14,19.36539808543576
2,2, 1, 2, 0,22, 0.00,60.00,Monday
7,11.116666666666667
8,16.159391817731823
9,19.016581346232773
10,21.379562213259216
11,17.148750928207306
12,16.22936701855569
13,15.543591974867129
14,18.817247572998387
2,2, 1, 2, 0,23, 0.00,60.00,Monday
7,10.200000000000001
8,15.981735167548578
9,18.64553321975309
10,20.89425230876212
11,16.88576719262665
12,15.789010953428054
13,15.319968748717221
14,18.257629673458112
2,2, 1, 2, 0,24, 0.00,60.00,Monday
7,9.558333333333334
8,15.794424493760978
9,18.30005259354584
10,20.40000666246372
11,16.60824416054049
12,15.302075905717338
13,15.04419693555847
14,17.705283037654542
2,3, 1, 3, 0, 1, 0.00,60.00,Tuesday
7,8.983333333333333
8,15.588210072193887
9,17.96279553103643
10,19.919089382351494
11,16.315713557734856
12,14.80196943981539
13,14.71395326594273
14,17.170139215421248
2,3, 1, 3, 0, 2, 0.00,60.00,Tuesday
7,8.433333333333334
8,15.385113062243773
9,17.654588764197758
10,19.47868812879827
11,16.035645597882933
12,14.347688996912652
13,14.400725310366555
14,16.675144764963566
2,3, 1, 3, 0, 3, 0.00,60.00,Tuesday
7,7.575
8,15.17163121143084
9,17.29892034664495
10,19.03191346807836
11,15.721349850916424
12,13.918795355227742
13,14.103605186205227
14,16.184726163725646
2,3, 1, 3, 0, 4, 0.00,60.00,Tuesday
7,6.733333333333333
8,14.957592985149738
9,16.932972536667364
10,18.59309178205546
11,15.400197401088477
12,13.520552321402562
13,13.824153626850594
14,15.717376428232413
2,3, 1, 3, 0, 5, 0.00,60.00,Tuesday
7,6.283333333333334
8,14.756120647497562
9,16.589659591578666
10,18.180309378278768
11,15.091504942469372
12,13.151740504296539
13,13.567472681539812
14,15.283918985895776
2,3, 1, 3, 0, 6, 0.00,60.00,Tuesday
7,6.316666666666666
8,14.5580888286376
9,16.27054120613745
10,17.798716679520115
11,14.799544132822684
12,12.81444382797202
13,13.333930919378544
14,14.882342098412025
2,3, 1, 3, 0, 7, 0.00,60.00,Tuesday
7,6.341666666666666
8,14.349155148519221
9,15.942815011871192
10,17.418135101858013
11,14.502877202272051
12,12.48767033909517
13,13.095749808400408
14,14.489593963271071
2,3, 1, 3, 0, 8, 0.00,60.00,Tuesday
7,6.766666666666667
8,14.276692084277684
9,15.695134261325576
10,17.267267143889466
11,14.42666662878581
12,12.187189319416554
13,12.873852301685645
14,14.24513472057761
2,3, 1, 3, 0, 9, 0.00,60.00,Tuesday
7,7.2749999999999995
8,14.335475942147381
9,15.545218983200854
10,17.447105001006516
11,14.592130325174068
12,11.932431540216704
13,12.67371958896293
14,14.214201825640911
2,3, 1, 3, 0,10, 0.00,60.00,Tuesday
7,8.1
8,14.478328246820594
9,15.468678219595205
10,17.93834622775485
11,14.883347892431944
12,11.822323222808043
13,12.556923870329195
14,14.405793194595319
2,3, 1, 3, 0,11, 0.00,60.00,Tuesday
7,11.866666666666667
8,14.768779914228361
9,15.67478293959595
10,18.877674671938127
11,15.34270641594882
12,12.034748443096872
13,12.653356434810497
14,14.934603075961297
2,3, 1, 3, 0,12, 0.00,60.00,Tuesday
7,15.25
8,14.999468724463489
9,15.990794710271544
10,19.887607545013733
11,15.756881885679645
12,12.46677204750406
13,12.874887134764203
14,15.66167020473459
2,3, 1, 3, 0,13, 0.00,60.00,Tuesday
7,16.933333333333334
8,15.143356162571946
9,16.29827128583394
10,20.78357660365522
11,16.041697207113774
12,12.989768100341967
13,13.119035375022513
14,16.454400638051393
2,3, 1, 3, 0,14, 0.00,60.00,Tuesday
7,18.533333333333335
8,15.330579491340652
9,16.7051809095807
10,21.600780391148458
11,16.40684228347806
12,13.601233345795883
13,13.454712486314163
14,17.31964744117589
2,3, 1, 3, 0,15, 0.00,60.00,Tuesday
7,20.133333333333333
8,15.510230519398837
9,17.218041232037184
10,22.267763923501732
11,16.743760191989367
12,14.308276411138577
13,13.833816330213404
14,18.141171145865968
2,3, 1, 3, 0,16, 0.00,60.00,Tuesday
7,20.566666666666666
8,15.640451201694509
9,17.813288242685008
10,22.67894111140833
11,17.02419981476937
12,15.034478636927718
13,14.213693115959444
14,18.83793299355608
2,3, 1, 3, 0,17, 0.00,60.00,Tuesday
7,20.166666666666668
8,15.767481812800606
9,18.46936477998401
10,22.834291122857305
11,17.247585494097446
12,15.712596374579256
13,14.614052556749678
14,19.414976403175476
2,3, 1, 3, 0,18, 0.00,60.00,Tuesday
7,19.766666666666666
8,15.915498098520006
9,19.03702158700112
10,22.713616400427366
11,17.4143344402999
12,16.27106374624963
13,15.037004057713332
14,19.77923665817151
2,3, 1, 3, 0,19, 0.00,60.00,Tuesday
7,17.441666666666666
8,16.037618309169048
9,19.24296631187853
10,22.318955270333248
11,17.413349575440183
12,16.55889397952599
13,15.346357045822884
14,19.763377803462248
2,3, 1, 3, 0,20, 0.00,60.00,Tuesday
7,14.383333333333333
8,16.072392521189816
9,19.222830061163435
10,21.897712524428325
11,17.251169099131232
12,16.574652969693286
13,15.465560851006101
14,19.53529409662183
2,3, 1, 3, 0,21, 0.00,60.00,Tuesday
7,12.075000000000001
8,16.00412949921504
9,19.02230166856913
10,21.445712759530846
11,17.043955568345314
12,16.38268246146909
13,15.428756644894277
14,19.137871656119902
2,3, 1, 3, 0,22, 0.00,60.00,Tuesday
7,10.908333333333331
8,15.882237649817094
9,18.712857637671164
10,20.986980306931688
11,16.83371524345313
12,16.051664205726613
13,15.287959091706634
14,18.62821018407289
2,3, 1, 3, 0,23, 0.00,60.00,Tuesday
7,10.233333333333333
8,15.72509801334376
9,18.368624838774334
10,20.50869625158445
11,16.584053536159896
12,15.586684761513807
13,15.065054883951554
14,18.063820915407067
2,3, 1, 3, 0,24, 0.00,60.00,Tuesday
7,9.200000000000001
8,15.512130071550885
9,17.980047236654578
10,19.976960908533798
11,16.25700880164737
12,15.031057046631611
13,14.733706071377625
14,17.44602795834749
2,4, 1, 4, 0, 1, 0.00,60.00,Wednesday
7,8.233333333333333
8,15.271659430109366
9,17.59050392597185
10,19.462265839894034
11,15.917359037533524
12,14.464009981319853
13,14.361762177357312
14,16.828540440542834
2,4, 1, 4, 0, 2, 0.00,60.00,Wednesday
7,7.316666666666667
8,15.036000110845501
9,17.2167071162183
10,18.977083784319984
11,15.562094545314162
12,13.923418031658294
13,14.027298817839174
14,16.220337983890644
2,4, 1, 4, 0, 3, 0.00,60.00,Wednesday
7,6.783333333333334
8,14.808048360134615
9,16.848538270270613
10,18.523744304864646
11,15.199991222038959
12,13.405548423490972
13,13.71597721449657
14,15.636184300960641
2,4, 1, 4, 0, 4, 0.00,60.00,Wednesday
7,5.941666666666667
8,14.566006408557351
9,16.44429011723925
10,18.06512952495862
11,14.81175802828202
12,12.886970514945354
13,13.391662911283627
14,15.050460672993532
2,4, 1, 4, 0, 5, 0.00,60.00,Wednesday
7,5.341666666666668
8,14.320738522330869
9,16.033075643212232
10,17.60779260822441
11,14.417961282906006
12,12.38038741189549
13,13.070076099365286
14,14.48089482987048
2,4, 1, 4, 0, 6, 0.00,60.00,Wednesday
7,5.125
8,14.073684417218573
9,15.631866592920213
10,17.170032621827286
11,14.035438806830236
12,11.90303362555638
13,12.765036847385987
14,13.944117534802501
2,4, 1, 4, 0, 7, 0.00,60.00,Wednesday
7,5.058333333333334
8,13.817432206857672
9,15.226840354954637
10,16.738118943349708
11,13.650672653831649
12,11.435254012178484
13,12.453235954648846
14,13.418306303789501
2,4, 1, 4, 0, 8, 0.00,60.00,Wednesday
7,6.150000000000001
8,13.790985955262707
9,14.941041257665598
10,16.677856265319832
11,13.628588309665986
12,11.021974608154695
13,12.186552893308663
14,13.14883367131533
2,4, 1, 4, 0, 9, 0.00,60.00,Wednesday
7,8.358333333333333
8,13.94019544766203
9,14.841721321242451
10,17.057253244502633
11,13.91814313159434
12,10.710137897404024
13,11.992588141206332
14,13.158481203968783
2,4, 1, 4, 0,10, 0.00,60.00,Wednesday
7,12.258333333333333
8,14.208294415289325
9,14.950650068020975
10,17.786673791440105
11,14.327994715724579
12,10.661953328237976
13,11.974754195363266
14,13.4209859836604
2,4, 1, 4, 0,11, 0.00,60.00,Wednesday
7,15.816666666666668
8,14.5533484873976
9,15.198614658798059
10,18.79271213962485
11,14.842495473696792
12,10.911326611739701
13,12.084025142009018
14,13.988836219097449
2,4, 1, 4, 0,12, 0.00,60.00,Wednesday
7,18.358333333333334
8,14.779136716398865
9,15.509417295661251
10,19.79256206286212
11,15.287589453985957
12,11.431368468227944
13,12.319672769231518
14,14.793323936354989
2,4, 1, 4, 0,13, 0.00,60.00,Wednesday
7,20.275000000000002
8,14.988064942852754
9,15.926916056290155
10,20.76356223611157
11,15.697435245959086
12,12.169960734123729
13,12.697486591201331
14,15.79010477175599
2,4, 1, 4, 0,14, 0.00,60.00,Wednesday
7,21.71666666666667
8,15.230440181709456
9,16.454716444299198
10,21.63275671837422
11,16.177838684542788
12,13.036631605459673
13,13.15094184652529
14,16.856235646118446
2,4, 1, 4, 0,15, 0.00,60.00,Wednesday
7,23.175
8,15.45286148575365
9,17.105789346702412
10,22.351599725277108
11,16.63872239951213
12,13.907915696460599
13,13.616904038080657
14,17.89130971750152
2,4, 1, 4, 0,16, 0.00,60.00,Wednesday
7,23.15833333333333
8,15.615731753267935
9,17.831646468304438
10,22.850084792981093
11,16.978680881721356
12,14.739197557382541
13,14.058349944777461
14,18.791261478285712
2,4, 1, 4, 0,17, 0.00,60.00,Wednesday
7,22.0
8,15.752707457918843
9,18.552656631756022
10,23.080410618600684
11,17.231896060354952
12,15.513157209260926
13,14.51747660792342
14,19.48719072018331
2,4, 1, 4, 0,18, 0.00,60.00,Wednesday
7,19.86666666666667
8,15.885088380863573
9,19.07916503130396
10,22.935498338088564
11,17.371550092853802
12,16.113078443361108
13,14.959563204362693
14,19.882890157519657
2,4, 1, 4, 0,19, 0.00,60.00,Wednesday
7,17.708333333333332
8,16.06536194144068
9,19.370229313782666
10,22.563524036474757
11,17.394471781556362
12,16.49889819294636
13,15.33386494259468
14,19.92147744317541
2,4, 1, 4, 0,20, 0.00,60.00,Wednesday
7,16.533333333333335
8,16.207438398542923
9,19.566051056122664
10,22.253765008491897
11,17.371220605104877
12,16.667583157495844
13,15.564591998713865
14,19.80605671894997
2,4, 1, 4, 0,21, 0.00,60.00,Wednesday
7,14.975
8,16.206456544612696
9,19.46466851038875
10,21.883151207683213
11,17.252009578237
12,16.533065500656054
13,15.591860258077247
14,19.45154822400835
2,4, 1, 4, 0,22, 0.00,60.00,Wednesday
7,12.991666666666667
8,16.079026834571213
9,19.166440799558643
10,21.43999508173881
11,17.011374465072024
12,16.171638692714527
13,15.467201050661474
14,18.927593385238634
2,4, 1, 4, 0,23, 0.00,60.00,Wednesday
7,10.858333333333334
8,15.882769381919283
9,18.759927314330735
10,20.941210000533783
11,16.703079021905214
12,15.690989196583757
13,15.24562897031205
14,18.321618168914352
2,4, 1, 4, 0,24, 0.00,60.00,Wednesday
7,9.433333333333334
8,15.68095680797027
9,18.339066231953108
10,20.41123816617754
11,16.37335908736171
12,15.156420795725317
13,14.96863832755979
14,17.70504825224135
2,5, 1, 5, 0, 1, 0.00,60.00,Thursday
7,8.808333333333334
8,15.484256732053781
9,17.976985453230824
10,19.923582404620987
11,16.05801760670707
12,14.62361429598021
13,14.660073939466074
14,17.126459009267
2,5, 1, 5, 0, 2, 0.00,60.00,Thursday
7,8.133333333333331
8,15.260245112035285
9,17.61251561988129
10,19.443743550597233
11,15.72920636339019
12,14.092850494306903
13,14.306297472840077
14,16.54494185089989
2,5, 1, 5, 0, 3, 0.00,60.00,Thursday
7,7.333333333333333
8,15.020675971537093
9,17.241278419866145
10,18.967199882646252
11,15.387445626238438
12,13.57356695377282
13,13.974107442141593
14,15.960864824626517
2,5, 1, 5, 0, 4, 0.00,60.00,Thursday
7,6.241666666666667
8,14.764149425649846
9,16.82753378473653
10,18.480744905105112
11,15.01140466549964
12,13.052672666162884
13,13.63913998328711
14,15.369946757664302
2,5, 1, 5, 0, 5, 0.00,60.00,Thursday
7,5.641666666666667
8,14.520311842842062
9,16.427604370631695
10,18.02644089254009
11,14.635925611692556
12,12.55227451266911
13,13.318127837160489
14,14.803232316671462
2,5, 1, 5, 0, 6, 0.00,60.00,Thursday
7,5.658333333333332
8,14.300378902266877
9,16.05834509804902
10,17.614490134472096
11,14.278258481759556
12,12.082358886773614
13,13.02607741411775
14,14.275957106232974
2,5, 1, 5, 0, 7, 0.00,60.00,Thursday
7,5.5249999999999995
8,14.054913781220781
9,15.664332051462672
10,17.187212438145135
11,13.903426723834265
12,11.61248690035408
13,12.716932303296211
14,13.750876360271548
2,5, 1, 5, 0, 8, 0.00,60.00,Thursday
7,6.041666666666667
8,14.019162886767864
9,15.349690258718804
10,17.095544029754752
11,13.868908972971099
12,11.179221703942057
13,12.425942292903928
14,13.455542904609949
2,5, 1, 5, 0, 9, 0.00,60.00,Thursday
7,9.825000000000001
8,14.229390720907508
9,15.335650554647309
10,17.55060281547409
11,14.223126351842735
12,10.930701001482957
13,12.300714657382164
14,13.541914977785746
2,5, 1, 5, 0,10, 0.00,60.00,Thursday
7,13.775
8,14.524527038069236
9,15.475012728280957
10,18.311504912180585
11,14.661299307910724
12,10.911291734607753
13,12.314549914667337
14,13.833771161838996
2,5, 1, 5, 0,11, 0.00,60.00,Thursday
7,16.416666666666668
8,14.830659361012037
9,15.691102063553528
10,19.231130370424324
11,15.147190563750582
12,11.167079000522135
13,12.403266718939213
14,14.370429393807944
2,5, 1, 5, 0,12, 0.00,60.00,Thursday
7,19.075
8,15.070193759590396
9,16.031519388343984
10,20.21062689075846
11,15.61739676096157
12,11.73781245498855
13,12.682909306889469
14,15.197077414630066
2,5, 1, 5, 0,13, 0.00,60.00,Thursday
7,21.016666666666666
8,15.289198838327849
9,16.48507429536825
10,21.155161382388325
11,16.039429884028028
12,12.517028856088691
13,13.103290064795893
14,16.20643477492197
2,5, 1, 5, 0,14, 0.00,60.00,Thursday
7,22.416666666666668
8,15.535264911317372
9,17.042856039086246
10,21.964418623743693
11,16.527348966627397
12,13.426346080894655
13,13.567460362232483
14,17.24582561094449
2,5, 1, 5, 0,15, 0.00,60.00,Thursday
7,23.816666666666666
8,15.766995857746261
9,17.7100764660696
10,22.580042271908855
11,16.999077693270465
12,14.328387072518138
13,14.043935459584533
14,18.227806902813086
2,5, 1, 5, 0,16, 0.00,60.00,Thursday
7,24.28333333333333
8,15.95374232175571
9,18.413499066127116
10,22.942872456422663
11,17.3652615233548
12,15.172206874490747
13,14.512501428640489
14,19.059668903849047
2,5, 1, 5, 0,17, 0.00,60.00,Thursday
7,24.083333333333332
8,16.126324696734645
9,19.085338192457716
10,23.075904427208183
11,17.659722022943214
12,15.95375899984169
13,15.002802596594414
14,19.70983397287262
2,5, 1, 5, 0,18, 0.00,60.00,Thursday
7,20.908333333333335
8,16.232415599589345
9,19.478928951422844
10,22.87076541904614
11,17.76819066185539
12,16.46960300961348
13,15.385670100258722
14,20.007551821927525
2,5, 1, 5, 0,19, 0.00,60.00,Thursday
7,17.591666666666665
8,16.35193911926692
9,19.603216363550914
10,22.486738737317495
11,17.732067495293887
12,16.755813168131876
13,15.67454194854929
14,19.962611614554387
2,5, 1, 5, 0,20, 0.00,60.00,Thursday
7,15.4
8,16.434384709646622
9,19.629159741890593
10,22.140947227150008
11,17.672533361138985
12,16.868421593692485
13,15.844859541198991
14,19.799116147351594
2,5, 1, 5, 0,21, 0.00,60.00,Thursday
7,13.408333333333333
8,16.390930633926327
9,19.440134849310365
10,21.744999684350613
11,17.51618716822966
12,16.70226692011232
13,15.833635719562785
14,19.427335713721387
2,5, 1, 5, 0,22, 0.00,60.00,Thursday
7,12.116666666666665
8,16.26329210400746
9,19.158781585522934
10,21.33750548349226
11,17.295871709110255
12,16.363585046189204
13,15.71153090819035
14,18.94087018253737
2,5, 1, 5, 0,23, 0.00,60.00,Thursday
7,11.175000000000002
8,16.101209630030848
9,18.808953290880634
10,20.902235584370246
11,17.0294037583685
12,15.91769384143774
13,15.51026136531413
14,18.391705514291804
2,5, 1, 5, 0,24, 0.00,60.00,Thursday
7,9.866666666666667
8,15.895729181138448
9,18.407086500196044
10,20.383853954925442
11,16.69778327977882
12,15.38962972941727
13,15.22097056999033
14,17.79298558295307
2,6, 1, 6, 0, 1, 0.00,60.00,Friday
7,8.966666666666667
8,15.678391625440568
9,18.02656192400941
10,19.885241114864534
11,16.35645173316789
12,14.853340873446797
13,14.88450646846829
14,17.21465566091737
2,6, 1, 6, 0, 2, 0.00,60.00,Friday
7,7.983333333333334
8,15.441267231467316
9,17.64515419831847
10,19.406766748675732
11,16.009226260405743
12,14.333234189597235
13,14.532138034667582
14,16.63978567139907
2,6, 1, 6, 0, 3, 0.00,60.00,Friday
7,7.166666666666667
8,15.215664966321407
9,17.269060006056723
10,18.94256876362558
11,15.66108863717232
12,13.826734584123235
13,14.20432980534535
14,16.068477652132394
2,6, 1, 6, 0, 4, 0.00,60.00,Friday
7,6.125
8,14.971267340382518
9,16.85697127943163
10,18.475202468114666
11,15.286818098576115
12,13.317247637837276
13,13.877051805301244
14,15.492860859872168
2,6, 1, 6, 0, 5, 0.00,60.00,Friday
7,5.266666666666667
8,14.720369834478774
9,16.432294868150247
10,18.009582072257498
11,14.888978320835394
12,12.808782484062803
13,13.542760558103957
14,14.91760068746177
2,6, 1, 6, 0, 6, 0.00,60.00,Friday
7,5.041666666666667
8,14.479468655788581
9,16.036304774945858
10,17.578508499752314
11,14.508871271428177
12,12.330022966059417
13,13.23229768184853
14,14.382133933942916
2,6, 1, 6, 0, 7, 0.00,60.00,Friday
7,4.883333333333334
8,14.219632167292081
9,15.631077550298537
10,17.144123003303417
11,14.120088325931102
12,11.85802898355694
13,12.907008294374165
14,13.854907076170711
2,6, 1, 6, 0, 8, 0.00,60.00,Friday
7,5.8500000000000005
8,14.185206672819339
9,15.336616059296935
10,17.069077623473998
11,14.090741720336183
12,11.443178135237083
13,12.621330815596624
14,13.577945447267133
2,6, 1, 6, 0, 9, 0.00,60.00,Friday
7,10.333333333333334
8,14.401311582830948
9,15.36143906160502
10,17.550094349967225
11,14.455192536657107
12,11.224972197364037
13,12.510954402394496
14,13.682928143463576
2,6, 1, 6, 0,10, 0.00,60.00,Friday
7,14.69166666666667
8,14.700521484594288
9,15.517610792199676
10,18.320183454065333
11,14.902527549407411
12,11.224249416437672
13,12.526795546834968
14,13.994113121306315
2,6, 1, 6, 0,11, 0.00,60.00,Friday
7,17.533333333333335
8,15.019894334571303
9,15.743797271678353
10,19.27194799566532
11,15.402015863042637
12,11.471621079684724
13,12.623638499584992
14,14.555731301329294
2,6, 1, 6, 0,12, 0.00,60.00,Friday
7,20.391666666666666
8,15.280335802146416
9,16.113467926467962
10,20.28425529020434
11,15.895664214016037
12,12.054703848943484
13,12.920544189734441
14,15.413308137391104
2,6, 1, 6, 0,13, 0.00,60.00,Friday
7,22.125
8,15.514754434515353
9,16.577893706952338
10,21.241108537540146
11,16.328341606989614
12,12.851173327186034
13,13.356368660045945
14,16.443364187627722
2,6, 1, 6, 0,14, 0.00,60.00,Friday
7,22.96666666666667
8,15.764312642216431
9,17.129368416620938
10,22.039531690315187
11,16.8142595328233
12,13.759451559381347
13,13.817315827924014
14,17.489385100226787
2,6, 1, 6, 0,15, 0.00,60.00,Friday
7,23.825000000000003
8,15.99285473367267
9,17.780920417108756
10,22.58884077153614
11,17.26969125937801
12,14.629667813351467
13,14.283622852647298
14,18.43757298221321
2,6, 1, 6, 0,16, 0.00,60.00,Friday
7,23.266666666666666
8,16.156839444494704
9,18.435191207013418
10,22.828268556189297
11,17.591080345532788
12,15.427579656158732
13,14.710838682777672
14,19.163974583499417
2,6, 1, 6, 0,17, 0.00,60.00,Friday
7,21.724999999999998
8,16.26641994655235
9,18.918054960051695
10,22.77279191833604
11,17.794660330807897
12,16.102258665823264
13,15.123028759643942
14,19.634842957669587
2,6, 1, 6, 0,18, 0.00,60.00,Friday
7,20.166666666666668
8,16.368557381099826
9,19.29277270341994
10,22.573235286767346
11,17.921396628701387
12,16.577327570507077
13,15.480039665817403
14,19.88835616492163
2,6, 1, 6, 0,19, 0.00,60.00,Friday
7,18.566666666666666
8,16.418888839193112
9,19.384811881578212
10,22.254893859231746
11,17.911343934666803
12,16.725318283065423
13,15.666885342153028
14,19.801761946663706
2,6, 1, 6, 0,20, 0.00,60.00,Friday
7,16.441666666666666
8,16.371039497201988
9,19.170915776083227
10,21.855344791001198
11,17.774482925999695
12,16.665128803868132
13,15.694556486082101
14,19.4746119485275
2,6, 1, 6, 0,21, 0.00,60.00,Friday
7,14.933333333333332
8,16.289731083484977
9,18.95705287753408
10,21.46925965432627
11,17.604467066976962