Program Version,EnergyPlus, Version 25.2.0-cf7368216c, YMD=2026.05.31 22:32
1,5,Environment Title[],Latitude[deg],Longitude[deg],Time Zone[],Elevation[m]
2,8,Day of Simulation[],Month[],Day of Month[],DST Indicator[1=yes 0=no],Hour[],StartMinute[],EndMinute[],DayType
3,5,Cumulative Day of Simulation[],Month[],Day of Month[],DST Indicator[1=yes 0=no],DayType  ! When Daily Report Variables Requested
4,2,Cumulative Days of Simulation[],Month[]  ! When Monthly Report Variables Requested
5,1,Cumulative Days of Simulation[] ! When Run Period Report Variables Requested
6,1,Calendar Year of Simulation[] ! When Annual Report Variables Requested
7,9,Environment,Site Outdoor Air Drybulb Temperature [C] !Monthly [Value,Min,Day,Hour,Minute,Max,Day,Hour,Minute]
8,1,BANO,Zone Air Temperature [C] !Hourly
9,1,BANO,Zone Air Relative Humidity [%] !Hourly
144,1,COMERCIO,Zone Air Temperature [C] !Hourly
145,1,COMERCIO,Zone Air Relative Humidity [%] !Hourly
208,1,ESCALERA,Zone Air Temperature [C] !Hourly
209,1,ESCALERA,Zone Air Relative Humidity [%] !Hourly
272,1,RECAMARAPA,Zone Air Temperature [C] !Hourly
273,1,RECAMARAPA,Zone Air Relative Humidity [%] !Hourly
336,1,RECAMARAPB,Zone Air Temperature [C] !Hourly
337,1,RECAMARAPB,Zone Air Relative Humidity [%] !Hourly
400,1,SALA,Zone Air Temperature [C] !Hourly
401,1,SALA,Zone Air Relative Humidity [%] !Hourly
End of Data Dictionary
1,RUN PERIOD 1,  19.40, -99.18,  -6.00,2303.00
2,1, 1, 1, 0, 1, 0.00,60.00,Sunday
8,15.408451978050207
9,35.60484554571345
144,16.994897809329924
145,32.17766266301989
208,15.166409922404457
209,36.163134018663534
272,14.93867839893688
273,36.69837357666599
336,15.163770881727507
337,36.16917720777287
400,16.032231953254044
401,34.212049121232
2,1, 1, 1, 0, 2, 0.00,60.00,Sunday
8,15.220154925834523
9,35.874455956618384
144,16.634327808371186
145,32.773600157053146
208,14.858419897710673
209,36.71998965165518
272,14.353301805390123
273,37.93964910856332
336,14.855224963037609
337,36.72782778178175
400,15.415301009645566
401,35.42956628288588
2,1, 1, 1, 0, 3, 0.00,60.00,Sunday
8,14.97488896995722
9,36.44527662453853
144,16.24593371381273
145,33.594512881142045
208,14.562561252461427
209,37.428052642125635
272,13.806408834608924
273,39.309633251371736
336,14.48199443371089
337,37.62377110087591
400,14.825531902506947
401,36.799701589029105
2,1, 1, 1, 0, 4, 0.00,60.00,Sunday
8,14.733910098214116
9,37.01586382434508
144,15.842312736826713
145,34.471792854408086
208,14.2455167329327
209,38.203923860129
272,13.274319625476087
273,40.69605784995216
336,14.133924541011034
337,38.48129047638474
400,14.25145839062692
401,38.19077797867629
2,1, 1, 1, 0, 5, 0.00,60.00,Sunday
8,14.494806299887019
9,37.59212684376353
144,15.448279931420009
145,35.35335740152265
208,13.902644437068625
209,39.063325129146996
272,12.753861738943913
273,42.105399483533226
336,13.785365565809819
337,39.36221172811818
400,13.685970922183747
401,39.61897140635909
2,1, 1, 1, 0, 6, 0.00,60.00,Sunday
8,14.235504290500954
9,38.22842544164781
144,15.034924170032776
145,36.30539854119848
208,13.542147115320025
209,39.990327372054665
272,12.23963695993199
273,43.551882898532334
336,13.427837741224053
337,40.2893301759018
400,13.129238192071051
401,41.083770994994126
2,1, 1, 1, 0, 7, 0.00,60.00,Sunday
8,13.96489371491864
9,38.90535192948989
144,14.613431599187294
145,37.30583569777368
208,13.170387613841308
209,40.97214684087135
272,11.731128026348545
273,45.03714377890615
336,13.067681967376814
337,41.24804820556303
400,12.582228146610978
401,42.58236524340989
2,1, 1, 1, 0, 8, 0.00,60.00,Sunday
8,13.69182857745844
9,39.60203035227614
144,14.19621640552432
145,38.3265887334556
208,12.797614512250519
209,41.983780187738084
272,11.237364690979092
273,46.53377184250278
336,12.70666804527226
337,42.23475876333487
400,12.051894045222042
401,44.093827719473836
2,1, 1, 1, 0, 9, 0.00,60.00,Sunday
8,13.45859863682954
9,40.555829691976946
144,13.83264629656525
145,39.58107747559256
208,12.47728856206219
209,43.246161864842215
272,10.802674707645929
273,48.31191673616109
336,12.378925309630374
337,43.52693179791683
400,11.58661230874204
401,45.86291452844944
2,1, 1, 1, 0,10, 0.00,60.00,Sunday
8,13.379731124931817
9,41.057347761893425
144,13.669174478731852
145,40.29035810977748
208,12.366139525311981
209,43.875233872300946
272,10.580154114919525
273,49.3836727914236
336,12.177913913138006
337,44.42221763584103
400,11.352289162910052
401,46.91248135470605
2,1, 1, 1, 0,11, 0.00,60.00,Sunday
8,13.441018445688188
9,40.968276265760544
144,13.727197572365734
145,40.2118821040536
208,12.481072335064182
209,43.624999250847615
272,10.70943929825924
273,49.050056783233636
336,12.122276928717007
337,44.666531092697504
400,11.49732252876867
401,46.54970396809339
2,1, 1, 1, 0,12, 0.00,60.00,Sunday
8,13.622826259794758
9,40.56015804361126
144,13.96966731423692
145,39.65621897604042
208,12.868941288421107
209,42.60814339403745
272,11.166577480706813
273,47.6702911394131
336,12.259157255715037
337,44.34677591439569
400,12.033128863339357
401,45.01562151347283
2,1, 1, 1, 0,13, 0.00,60.00,Sunday
8,13.941754313633433
9,39.73918961022368
144,14.464157524666076
145,38.418032858570236
208,13.444482667068643
209,41.04831654925158
272,11.838064568937831
273,45.61249841300464
336,12.533593220286763
337,43.566715688523935
400,12.849459451574829
401,42.67981054873224
2,1, 1, 1, 0,14, 0.00,60.00,Sunday
8,14.224460338801748
9,38.98470367363493
144,15.046247185335226
145,36.971453098418515
208,14.037159384911147
209,39.46279077607036
272,12.610878553541335
273,43.31511714934532
336,12.889585831124386
337,42.52696410718242
400,13.830602532792566
401,40.001515319143316
2,1, 1, 1, 0,15, 0.00,60.00,Sunday
8,14.427594405221347
9,38.44384519874543
144,15.604157009142776
145,35.640581432481994
208,14.472630937508717
209,38.332796718136585
272,13.42109455269028
273,41.04643886104656
336,13.28189916247514
337,41.416466759234154
400,14.82783487841975
401,37.46908227010988
2,1, 1, 1, 0,16, 0.00,60.00,Sunday
8,14.592303474681765
9,37.965228936284056
144,16.14740989266488
145,34.358930605736525
208,14.828295050494715
209,37.39203303966283
272,14.270236036004688
273,38.77006266980671
336,13.733155634561696
337,40.14160603905162
400,15.782062600298019
401,35.174922768356986
2,1, 1, 1, 0,17, 0.00,60.00,Sunday
8,14.76741390542233
9,37.4390989141588
144,16.689187661510804
145,33.10552143099193
208,15.160688284510371
209,36.502977184226204
272,15.091862658619297
273,36.66863999369695
336,14.241883051887248
337,38.7350215733594
400,16.696672465287417
401,33.09271945228472
2,1, 1, 1, 0,18, 0.00,60.00,Sunday
8,15.019609906080246
9,36.84049612770394
144,17.171078647135385
145,32.11208188421363
208,15.437782641889441
209,35.863099960379124
272,15.769061370186252
273,35.11139454678614
336,14.774548482981649
337,37.428199042803065
400,17.44922829918536
401,31.553261863774427
2,1, 1, 1, 0,19, 0.00,60.00,Sunday
8,15.30985197968837
9,36.16570279415987
144,17.526119858192448
145,31.40457622842136
208,15.647627470553273
209,35.39006682139208
272,16.264636191279212
273,34.022194968390366
336,15.232057581943351
337,36.347537191808996
400,17.922688006119973
401,30.629258589092334
2,1, 1, 1, 0,20, 0.00,60.00,Sunday
8,15.534468288468155
9,35.604778945483986
144,17.752751973918844
145,30.92106107187871
208,15.800172525766998
209,35.00369572968657
272,16.53796029671108
273,33.393922250447325
336,15.541490175617469
337,35.5889063613619
400,18.100474493545217
401,30.251470143159775
2,1, 1, 1, 0,21, 0.00,60.00,Sunday
8,15.651234430241802
9,35.29641119167209
144,17.81766543787114
145,30.757511977244548
208,15.875130497175244
209,34.79407124080393
272,16.56429505077745
273,33.297634181597935
336,15.68871953065956
337,35.211757143180314
400,17.993293125811956
401,30.419533915093222
2,1, 1, 1, 0,22, 0.00,60.00,Sunday
8,15.661671980639008
9,35.25494191554322
144,17.731443056639225
145,30.909587317433775
208,15.844897043489865
209,34.84385622631995
272,16.33699876978721
273,33.76656375227296
336,15.68303447939519
337,35.2067542406135
400,17.668061195426553
401,31.034212163705124
2,1, 1, 1, 0,23, 0.00,60.00,Sunday
8,15.591916213360989
9,35.41295338016201
144,17.536113692482658
145,31.293040464078146
208,15.680582423194588
209,35.2125638172654
272,15.94818302078418
273,34.615654501471944
336,15.558636992158391
337,35.48871501783265
400,17.193651242471972
401,31.979260889143045
2,1, 1, 1, 0,24, 0.00,60.00,Sunday
8,15.476321605272156
9,35.676514201431
144,17.271563650398864
145,31.820852814341805
208,15.423550450214444
209,35.797961074894324
272,15.465361183752846
273,35.70329821879004
336,15.361746997128082
337,35.94009474739781
400,16.633799691804775
401,33.13607072529339
2,2, 1, 2, 0, 1, 0.00,60.00,Monday
8,15.336121260508394
9,35.99910574023889
144,16.957835092131674
145,32.45974902493955
208,15.124363876212897
209,36.493071073046785
272,14.910000582198867
273,37.00204716090524
336,15.114621919952569
337,36.5157481553134
400,16.01178672873351
401,34.476557568201976
2,2, 1, 2, 0, 2, 0.00,60.00,Monday
8,15.152523527327347
9,36.42665194553523
144,16.59903756879168
145,33.20809835788088
208,14.813719673321353
209,37.230587398601756
272,14.320075956827148
273,38.43913381363648
336,14.81036687734773
337,37.23886925495588
400,15.391140250209908
401,35.87446098961975
2,2, 1, 2, 0, 3, 0.00,60.00,Monday
8,14.91211443067658
9,36.99499258683647
144,16.215995440757442
145,34.028471429657735
208,14.51193474226172
209,37.96330972257784
272,13.761518968699685
273,39.85778417528647
336,14.440176159134765
337,38.140133958039236
400,14.792205480581167
401,37.28414891113868
2,2, 1, 2, 0, 4, 0.00,60.00,Monday
8,14.671938881775334
9,37.57253475401787
144,15.817488552884592
145,34.90589737326725
208,14.188571397607914
209,38.76646509377412
272,13.212409590947457
273,41.31000638192241
336,14.093208016239487
337,39.00692363499461
400,14.20453726403291
401,38.72805405778541
2,2, 1, 2, 0, 5, 0.00,60.00,Monday
8,14.433722122477443
9,38.15557219228228
144,15.42183754751491
145,35.80249897909981
208,13.83497374798195
209,39.6665940916364
272,12.664925512347748
273,42.817241290373005
336,13.739459607763072
337,39.91368519838599
400,13.618295937291057
401,40.231275735838416
2,2, 1, 2, 0, 6, 0.00,60.00,Monday
8,14.173114498244459
9,38.71029366211625
144,15.004587398222233
145,36.68616722130044
208,13.462077376145452
209,40.54195593643917
272,12.124360341298086
273,44.257522702248934
336,13.374070967389876
337,40.77522774350809
400,13.038101898137937
401,41.681307102488134
2,2, 1, 2, 0, 7, 0.00,60.00,Monday
8,13.904722504733305
9,39.39953728137043
144,14.584457148634508
145,37.70296068919976
208,13.082408551901468
209,41.569237021028364
272,11.595879068136766
273,45.83982019034156
336,13.011424159918292
337,41.76252553081036
400,12.475665933303416
401,43.25706660876927
2,2, 1, 2, 0, 8, 0.00,60.00,Monday
8,13.634387114513304
9,40.233598119513346
144,14.169125665774898
145,38.860800623347096
208,12.704634871982728
209,42.75408612127993
272,11.089492735506852
273,47.56438252898929
336,12.652191319506137
337,42.901293587423616
400,11.932172531014997
401,44.98399093745915
2,2, 1, 2, 0, 9, 0.00,60.00,Monday
8,13.401857546753241
9,40.984706700071875
144,13.803627355828118
145,39.9269240327688
208,12.379656563969904
209,43.82221994293258
272,10.644863144205033
273,49.156095780529135
336,12.32320264722268
337,43.985401647975515
400,11.45682899745528
401,46.57463985172594
2,2, 1, 2, 0,10, 0.00,60.00,Monday
8,13.319859421260029
9,41.30797046854205
144,13.631796726796304
145,40.47663356925096
208,12.260983545240348
209,44.27616840510208
272,10.412116453292343
273,50.04954296784879
336,12.115885410514954
337,44.70142927650942
400,11.211230719294571
401,47.4567354970658
2,2, 1, 2, 0,11, 0.00,60.00,Monday
8,13.368505504322016
9,41.25632680622342
144,13.66909421744261
145,40.45620463050033
208,12.361326087289877
209,44.06989217828012
272,10.534795911880751
273,49.737620306815195
336,12.0439551030748
337,45.00005558473947
400,11.341743678227244
401,47.1390937816662
2,2, 1, 2, 0,12, 0.00,60.00,Monday
8,13.535356764106877
9,40.88885566460767
144,13.88717311671932
145,39.9639347221742
208,12.734283733379172
209,43.08792958784841
272,10.996052919433227
273,48.32817401005872
336,12.1728083856198
337,44.70568609961469
400,11.866015987698184
401,45.62286279082122
2,2, 1, 2, 0,13, 0.00,60.00,Monday
8,13.852891008935712
9,40.06041757658086
144,14.364787578248501
145,38.75397008847194
208,13.307973861351174
209,41.50995680135913
272,11.694580563656636
273,46.15250635882999
336,12.465964155017707
337,43.860607611001484
400,12.68775544570611
401,43.233148554020595
2,2, 1, 2, 0,14, 0.00,60.00,Monday
8,14.15048816745589
9,39.2516612210739
144,14.954697989094285
145,37.26573902861323
208,13.921412884597578
209,39.84146814298318
272,12.525197720599257
273,43.64902183587546
336,12.863234347210174
337,42.687237063469276
400,13.693609781520657
401,40.4419979576779
2,2, 1, 2, 0,15, 0.00,60.00,Monday
8,14.374753015141453
9,38.64405266259348
144,15.532951270650628
145,35.867412033894034
208,14.393891267742442
209,38.59711869703299
272,13.393120941541943
273,41.195076705262444
336,13.301123428089134
337,41.438291851611595
400,14.733412258891976
401,37.76562630221446
2,2, 1, 2, 0,16, 0.00,60.00,Monday
8,14.55926942000758
9,38.123929222114285
144,16.09700430825107
145,34.54000527375041
208,14.777118564067246
209,37.592234544278455
272,14.280874713545787
273,38.822595818334776
336,13.78532825090641
337,40.08727584951303
400,15.71846272851315
401,35.39062682507565
2,2, 1, 2, 0,17, 0.00,60.00,Monday
8,14.74982253427386
9,37.58228290185887
144,16.651880238526743
145,33.27315127316182
208,15.129727965320063
209,36.67390980287538
272,15.120924352551745
273,36.69832249378112
336,14.312125093649245
337,38.66277576719767
400,16.650556333279653
401,33.27897410382301
2,2, 1, 2, 0,18, 0.00,60.00,Monday
8,15.026019844816426
9,36.85394386808956
144,17.136215415337134
145,32.208132724110484
208,15.420179633068402
209,35.93158654538112
272,15.817203672090193
273,35.03096756780308
336,14.85697354317623
337,37.258855548899554
400,17.413043434120166
401,31.650266570557886
2,2, 1, 2, 0,19, 0.00,60.00,Monday
8,15.310178489830768
9,36.14483312274749
144,17.49177344676487
145,31.45525018836695
208,15.646175205180285
209,35.37376713419861
272,16.312809762773643
273,33.898956570939326
336,15.3014535203501
337,36.16557651567315
400,17.883057864795568
401,30.68873131427195
2,2, 1, 2, 0,20, 0.00,60.00,Monday
8,15.487481166208662
9,35.706353092059764
144,17.655030643171514
145,31.107045048545107
208,15.775228030075995
209,35.053908390706226
272,16.528894413402707
273,33.40765367509976
336,15.55260754108331
337,35.55758514088515
400,18.01537402883841
401,30.408894314493722
2,2, 1, 2, 0,21, 0.00,60.00,Monday
8,15.53698663086972
9,35.56439175809422
144,17.62041258153441
145,31.14998341215195
208,15.799515683589691
209,34.9712267008045
272,16.491844620355828
273,33.45963827968118
336,15.616708623142829
337,35.383080938360415
400,17.838220619008798
401,30.725531082441467
2,2, 1, 2, 0,22, 0.00,60.00,Monday
8,15.499343201379029
9,35.63850789257591
144,17.460000429250623
145,31.45675919911771
208,15.74056297384144
209,35.09180287365752
272,16.25125918973947
273,33.965637403331456
336,15.553709710581124
337,35.51450548563093
400,17.483155010572602
401,31.411537026887075
2,2, 1, 2, 0,23, 0.00,60.00,Monday
8,15.403895791288582
9,35.85753652881912
144,17.225763711468574
145,31.92630928535303
208,15.592346338307458
209,35.42682697731686
272,15.884911976514616
273,34.77018903550621
336,15.403446113627785
337,35.85871073589491
400,17.01972875675054
401,32.346809808086526
2,2, 1, 2, 0,24, 0.00,60.00,Monday
8,15.2703495100659
9,36.16649651098414
144,16.940371307223355
145,32.50904265325112
208,15.357944315135265
209,35.96382835233839
272,15.439166707429331
273,35.77783341764357
336,15.190698422501322
337,36.35239464975442
400,16.48955337514031
401,33.455089945215605
2,3, 1, 3, 0, 1, 0.00,60.00,Tuesday
8,15.121850420370743
9,36.51351246880903
144,16.624247828082883
145,33.1684062558523
208,15.108404966749426
209,36.545383947715855
272,14.956995986144229
273,36.90465970794991
336,14.942455039499444
337,36.9380247518906
400,15.93443608702862
401,34.66105904245453
2,3, 1, 3, 0, 2, 0.00,60.00,Tuesday
8,14.951409180345848
9,36.9164999099961
144,16.29428187491337
145,33.872652221656324
208,14.871594243364894
209,37.10700933488113
272,14.476478876374903
273,38.066952937082824
336,14.665804106207302
337,37.60325493674345
400,15.424794005163193
401,35.81089012568557
2,3, 1, 3, 0, 3, 0.00,60.00,Tuesday
8,14.764914754482868
9,37.36304891909668
144,15.958659813185584
145,34.60622726944673
208,14.637258810080944
209,37.67238131168167
272,14.060404757779766
273,39.10642345815957
336,14.368683520930785
337,38.33238971517171
400,14.97330464057413
401,36.865491041692664
2,3, 1, 3, 0, 4, 0.00,60.00,Tuesday
8,14.59260934911162
9,37.781021555808486
144,15.645847941923888
145,35.30586093580312
208,14.401399353262855
209,38.251202879438374
272,13.692797923083823
273,40.051547032547255
336,14.115109962268948
337,38.96723838470373
400,14.562923473596824
401,37.854470311086324
2,3, 1, 3, 0, 5, 0.00,60.00,Tuesday
8,14.41152827067544
9,38.22598056603863
144,15.345420095588807
145,35.992983047032794
208,14.157535134160703
209,38.860203125544864
272,13.339696409386697
273,40.98369107717516
336,13.866519837206509
337,39.601186218731264
400,14.170174896945824
401,38.829048417664644
2,3, 1, 3, 0, 6, 0.00,60.00,Tuesday
8,14.220718630491675
9,38.701210052827385
144,15.03187230813044
145,36.72613082830574
208,13.90340592525481
209,39.506427115678854
272,12.992091611333757
273,41.92515109706187
336,13.614961129196077
337,40.254490847467274
400,13.782122178354077
401,39.81968174900305
2,3, 1, 3, 0, 7, 0.00,60.00,Tuesday
8,14.023971694180153
9,39.19815947533331
144,14.714895430497185
145,37.484326575749876
208,13.64291418156187
209,40.181333638552815
272,12.648398472063109
273,42.87987499722098
336,13.356611412443636
337,40.93805203898649
400,13.403078633765551
401,40.814735135416775
2,3, 1, 3, 0, 8, 0.00,60.00,Tuesday
8,13.826864751412147
9,39.703188575670225
144,14.40327112396256
145,38.246841021698295
208,13.383400958435425
209,40.86655961455717
272,12.316419020948553
273,43.82522165760091
336,13.097945680217919
337,41.63546279147908
400,13.030890998088765
401,41.81898905848415
2,3, 1, 3, 0, 9, 0.00,60.00,Tuesday
8,13.654460684419107
9,40.34520625905645
144,14.126295827847729
145,39.12765949636624
208,13.157896915425185
209,41.67327352749925
272,12.024038163169685
273,44.8933921773978
336,12.861115349186107
337,42.490438491211485
400,12.701360555250629
401,42.93801780831601
2,3, 1, 3, 0,10, 0.00,60.00,Tuesday
8,13.583997798358332
9,40.69948534513479
144,13.98246642475307
145,39.65858311936973
208,13.076523421407842
209,42.06979870971611
272,11.874552629414127
273,45.52656530468249
336,12.708724064847742
337,43.09539408060703
400,12.541298142257352
401,43.57138053815334
2,3, 1, 3, 0,11, 0.00,60.00,Tuesday
8,13.61122111480727
9,40.67836484671875
144,13.993068667498598
145,39.680981958683105
208,13.155577566581846
209,41.90559401607343
272,11.927464721363648
273,45.42495894834468
336,12.64254785594187
337,43.33705339507501
400,12.605336826201786
401,43.44325591182926
2,3, 1, 3, 0,12, 0.00,60.00,Tuesday
8,13.719756811529242
9,40.44256017682431
144,14.12743117675331
145,39.38590416000178
208,13.408632934638225
209,41.27115203754327
272,12.208744764494687
273,44.64705663828574
336,12.693648115948127
337,43.2458856577403
400,12.93861372278092
401,42.55893246984933
2,3, 1, 3, 0,13, 0.00,60.00,Tuesday
8,13.949888307489742
9,39.85084739717397
144,14.466785511060552
145,38.53900193493276
208,13.82101928640058
209,40.18699786837231
272,12.643572187089505
273,43.39915945857533
336,12.85385121057695
337,42.8035039641809
400,13.507126289949307
401,41.018198287312515
2,3, 1, 3, 0,14, 0.00,60.00,Tuesday
8,14.175837777295973
9,39.25043876386653
144,14.932581884718475
145,37.37835274805463
208,14.23542779216414
209,39.09987200413383
272,13.17884564245729
273,41.88426701319832
336,13.091305896274498
337,42.12203449314113
400,14.20499736454444
401,39.180343846406885
2,3, 1, 3, 0,15, 0.00,60.00,Tuesday
8,14.335473986308926
9,38.826356182832704
144,15.400417055199737
145,36.25148659135973
208,14.572109965400957
209,38.23721682560464
272,13.85107956274152
273,40.069367159695716
336,13.39326529421391
337,41.27852394410184
400,15.007563515569615
401,37.18225358670831
2,3, 1, 3, 0,16, 0.00,60.00,Tuesday
8,14.468582737907957
9,38.43653811324129
144,15.874501168025587
145,35.115019258321745
208,14.873471174769302
209,37.44523415153165
272,14.573032219829052
273,38.18188848522829
336,13.759436970024382
337,40.24684368926295
400,15.84639862877025
401,35.181437544269286
2,3, 1, 3, 0,17, 0.00,60.00,Tuesday
8,14.626424046793822
9,37.96449095129402
144,16.36572035934361
145,33.95755666129905
208,15.154475310438166
209,36.694360447172684
272,15.282076837831879
273,36.397283816107404
336,14.198939033777947
337,39.03071480381558
400,16.657848449782968
401,33.33424845096866
2,3, 1, 3, 0,18, 0.00,60.00,Tuesday
8,14.838781474546067
9,37.427469405276284
144,16.817011663755842
145,32.97795559563086
208,15.394782540354633
209,36.11199142649512
272,15.85990440084982
273,35.05270143706355
336,14.673043804210254
337,37.8309021740745
400,17.327174881890155
401,31.92973033735259
2,3, 1, 3, 0,19, 0.00,60.00,Tuesday
8,15.10331927764289
9,36.80430037793426
144,17.145630748466683
145,32.30549597932848
208,15.562655644081659
209,35.733941734250756
272,16.271974687446047
273,34.14993657027066
336,15.086006012903546
337,36.84575165860859
400,17.728035124644805
401,31.138200277255947
2,3, 1, 3, 0,20, 0.00,60.00,Tuesday
8,15.29848233272718
9,36.345019705591824
144,17.334479709865477
145,31.92132613693505
208,15.661796217338596
209,35.507496590189625
272,16.457064035273255
273,33.74896286275396
336,15.344998724905963
337,36.23663608877991
400,17.868233473223512
401,30.863959561186835
2,3, 1, 3, 0,21, 0.00,60.00,Tuesday
8,15.371839554691256
9,36.17404431707971
144,17.345834031947494
145,31.898386007557452
208,15.66600194694199
209,35.49792283364731
272,16.405571666439467
273,33.85993203309365
336,15.420292977801926
337,36.06168602745053
400,17.714553553255424
401,31.16475974162043
2,3, 1, 3, 0,22, 0.00,60.00,Tuesday
8,15.347188972903425
9,36.23138103957564
144,17.21367251102275
145,32.16639666330402
208,15.58300661352653
209,35.6873228006039
272,16.145263096711002
273,34.42731952550753
336,15.352828877388013
337,36.21833743763507
400,17.34038652527111
401,31.910530959325424
2,3, 1, 3, 0,23, 0.00,60.00,Tuesday
8,15.256089994796676
9,36.44413415326857
144,16.980347810492063
145,32.645651874554865
208,15.398525242524974
209,36.11252430935132
272,15.722496460407621
273,35.371187267439744
336,15.185394104202699
337,36.61035592529458
400,16.83238995632622
401,32.9550009641821
2,3, 1, 3, 0,24, 0.00,60.00,Tuesday
8,15.129448097424293
9,36.74218304786461
144,16.681834962386215
145,33.27042250237116
208,15.141007275945862
209,36.715229549910276
272,15.209091527926809
273,36.55637404906977
336,14.953516957545878
337,37.16104315104882
400,16.239070324628326
401,34.22354148434049
2,4, 1, 4, 0, 1, 0.00,60.00,Wednesday
8,14.956972312035484
9,37.152601177822255
144,16.34049267632449
145,34.00130501432239
208,14.861273047630114
209,37.382722714781245
272,14.639484991455765
273,37.9233941511033
336,14.664200596764386
337,37.86130074682156
400,15.61496272052411
401,35.61660365138673
2,4, 1, 4, 0, 2, 0.00,60.00,Wednesday
8,14.733863351688976
9,37.69105512324599
144,15.964803430359176
145,34.82655707504478
208,14.574674875736576
209,38.08075349386856
272,14.094295849319423
273,39.28506340727188
336,14.316493522855263
337,38.722211243036675
400,15.031164527469668
401,36.977473412499215
2,4, 1, 4, 0, 3, 0.00,60.00,Wednesday
8,14.51860881407397
9,38.2186307141107
144,15.592745734903017
145,35.66579524304418
208,14.268647345496417
209,38.84229469006223
272,13.579181298060549
273,40.62246885661685
336,14.002053840093039
337,39.51952097558071
400,14.469507598924915
401,38.342113570442315
2,4, 1, 4, 0, 4, 0.00,60.00,Wednesday
8,14.314773278241306
9,38.72604874081457
144,15.247127586075628
145,36.46585791129857
208,13.948227268753136
209,39.657980560270126
272,13.075410356424802
273,41.98000852815918
336,13.700556162260243
337,40.30149546123666
400,13.92452493029414
401,39.72045611023509
2,4, 1, 4, 0, 5, 0.00,60.00,Wednesday
8,14.094674800829125
9,39.28242401912978
144,14.892288689073927
145,37.30841470176561
208,13.617543202269182
209,40.5199790281246
272,12.581535836658711
273,43.36043413153184
336,13.392043807600958
337,41.1196730181303
400,13.395785353927161
401,41.111029724217005
2,4, 1, 4, 0, 6, 0.00,60.00,Wednesday
8,13.863232753646628
9,39.79013101078727
144,14.525607597416204
145,38.118592168736605
208,13.276779334929868
209,41.33978205207145
272,12.094107178903231
273,44.67498212988702
336,13.078681940798928
337,41.87815344408822
400,12.876538469636465
401,42.43699301380284
2,4, 1, 4, 0, 7, 0.00,60.00,Wednesday
8,13.622309437038604
9,40.39222841040728
144,14.152232481625864
145,39.02590449241336
208,12.928020951118276
209,42.265688302717315
272,11.613260106188
273,46.0861643490872
336,12.756676871869404
337,42.74260580676302
400,12.363356822613843
401,43.86206223810723
2,4, 1, 4, 0, 8, 0.00,60.00,Wednesday
8,13.374008489719849
9,41.11454071666761
144,13.775047746134701
145,40.05521936496954
208,12.574535084488517
209,43.32330122596059
272,11.138512316764965
273,47.63251697306376
336,12.426544690185843
337,43.74634239740036
400,11.858692557780463
401,45.41495830447831
2,4, 1, 4, 0, 9, 0.00,60.00,Wednesday
8,13.158529175721023
9,41.760659280056906
144,13.4404489102697
145,40.99964356791152
208,12.267009714844706
209,44.27501630080164
272,10.715460755121754
273,49.065880883261535
336,12.121139807117629
337,44.70243579654332
400,11.405728145554306
401,46.866741011558226
2,4, 1, 4, 0,10, 0.00,60.00,Wednesday
8,13.089303298950606
9,42.011298282703855
144,13.294353956904041
145,41.45233268945744
208,12.15960582170864
209,44.65401156850993
272,10.49339867350258
273,49.86955935975627
336,11.932284969670135
337,45.328352051473466
400,11.174759608802972
401,47.65855721002445
2,4, 1, 4, 0,11, 0.00,60.00,Wednesday
8,13.145359951899716
9,41.91748956303279
144,13.348289560043755
145,41.36577609708625
208,12.262220010091445
209,44.417132119574575
272,10.597755784340752
273,49.59494249027933
336,11.868885093941897
337,45.583292229304654
400,11.294570340557579
401,47.34959770549326
2,4, 1, 4, 0,12, 0.00,60.00,Wednesday
8,13.314535004550502
9,41.51649480694454
144,13.577009968889845
145,40.812514621265265
208,12.627936937746357
209,43.425685155597876
272,11.024926467890083
273,48.27539406140132
336,11.989660531832271
337,45.28623900174446
400,11.800017225671295
401,45.86013988614686
2,4, 1, 4, 0,13, 0.00,60.00,Wednesday
8,13.634021518552643
9,40.6608168186257
144,14.061370956598031
145,39.54892949394803
208,13.189622263058126
209,41.858675890527856
272,11.677542962667081
273,46.23334329507001
336,12.257837927986136
337,44.49329232707881
400,12.595511384029875
401,43.52303033985618
2,4, 1, 4, 0,14, 0.00,60.00,Wednesday
8,13.927021364232992
9,39.85183794223649
144,14.659093907240925
145,38.008705366616915
208,13.783933976719261
209,40.22588989035958
272,12.436426765532545
273,43.93267597611955
336,12.619394965905608
337,43.40414319785816
400,13.57142637670919
401,40.79201213613224
2,4, 1, 4, 0,15, 0.00,60.00,Wednesday
8,14.142386055047778
9,39.25782521355663
144,15.236673802617956
145,36.58212113532093
208,14.22458228144255
209,39.05007461560802
272,13.256462564219996
273,41.592992928761205
336,13.03083130829386
337,42.20617134478466
400,14.575586938022624
401,38.17909460741239
2,4, 1, 4, 0,16, 0.00,60.00,Wednesday
8,14.317769234351326
9,38.78004083990402
144,15.808877560917756
145,35.23287199049293
208,14.592313947364316
209,38.09821868546555
272,14.120511113122452
273,39.28444838891248
336,13.492010236145807
337,40.91884508574638
400,15.562599877439915
401,35.79750677471614
2,4, 1, 4, 0,17, 0.00,60.00,Wednesday
8,14.501395518152265
9,38.292377549879554
144,16.388108283020877
145,33.92718024848559
208,14.932849126261873
209,37.241149593642426
272,14.958761891988308
273,37.18273636408454
336,14.014759674693499
337,39.52075481626653
400,16.521935971772063
401,33.642454642420994
2,4, 1, 4, 0,18, 0.00,60.00,Wednesday
8,14.772456742308739
9,37.56573223254833
144,16.911052228812462
145,32.76249182657252
208,15.219513399747251
209,36.49922760869263
272,15.66145044495167
273,35.48089405487868
336,14.573082969964565
337,38.05397042265735
400,17.324527802803875
401,31.917050234142295
2,4, 1, 4, 0,19, 0.00,60.00,Wednesday
8,15.080197145792523
9,36.74328875644907
144,17.302723466180037
145,31.885469537586854
208,15.44065772719111
209,35.90149945680426
272,16.179425162432505
273,34.244472200390014
336,15.051917647714276
337,36.81084510211283
400,17.833397534211343
401,30.835242057171616
2,4, 1, 4, 0,20, 0.00,60.00,Wednesday
8,15.292809309809599
9,36.20902034848741
144,17.52071413602451
145,31.41835790640521
208,15.569990906087803
209,35.57042046522949
272,16.415972725444433
273,33.69851151314872
336,15.33979367995378
337,36.09997140883247
400,17.987198505811865
401,30.50794699829325
2,4, 1, 4, 0,21, 0.00,60.00,Wednesday
8,15.374721101664818
9,36.01887349535039
144,17.54374020265529
145,31.372656147137047
208,15.591174444201096
209,35.522114863684905
272,16.3632544481378
273,33.812054917659644
336,15.429947297792117
337,35.89138999359656
400,17.805172110293398
401,30.860065222910166
2,4, 1, 4, 0,22, 0.00,60.00,Wednesday
8,15.369333874917166
9,36.03133841087072
144,17.442523182008674
145,31.57396108983764
208,15.534278955428066
209,35.65201206269984
272,16.096270050884723
273,34.39324765430546
336,15.393300048525631
337,35.97596900917552
400,17.447742399156855
401,31.564404865471563
2,4, 1, 4, 0,23, 0.00,60.00,Wednesday
8,15.309576941787823
9,36.169938933905904
144,17.26254552129688
145,31.935469075957794
208,15.380948339022602
209,36.00473703543489